 TITLE = "GRIDBLO_BC0014"
 VARIABLES = "X","Y"
ZONE I=    61,J=   115  ,DATAPACKING=POINT
  0.23684200999999999        4.4642859139999999E-003
  0.24122798000000001        4.4642859139999999E-003
  0.24561394000000000        4.4642859139999999E-003
  0.24999990000000000        4.4642859139999999E-003
  0.25438587000000001        4.4642859139999999E-003
  0.25877182999999998        4.4642859139999999E-003
  0.26315780000000000        4.4642859139999999E-003
  0.26754376000000002        4.4642859139999999E-003
  0.27192972999999998        4.4642859139999999E-003
  0.27631569000000000        4.4642859139999999E-003
  0.28070166000000002        4.4642859139999999E-003
  0.28508761999999999        4.4642859139999999E-003
  0.28947358000000001        4.4642859139999999E-003
  0.29385955000000002        4.4642859139999999E-003
  0.29824550999999999        4.4642859139999999E-003
  0.30263148000000001        4.4642859139999999E-003
  0.30701743999999997        4.4642859139999999E-003
  0.31140340999999999        4.4642859139999999E-003
  0.31578937000000001        4.4642859139999999E-003
  0.32017533999999997        4.4642859139999999E-003
  0.32456130000000000        4.4642859139999999E-003
  0.32894727000000001        4.4642859139999999E-003
  0.33333322999999998        4.4642859139999999E-003
  0.33771919000000000        4.4642859139999999E-003
  0.34210516000000002        4.4642859139999999E-003
  0.34649111999999999        4.4642859139999999E-003
  0.35087709000000000        4.4642859139999999E-003
  0.35526305000000002        4.4642859139999999E-003
  0.35964901999999999        4.4642859139999999E-003
  0.36403498000000001        4.4642859139999999E-003
  0.36842095000000002        4.4642859139999999E-003
  0.37280690999999999        4.4642859139999999E-003
  0.37719287000000001        4.4642859139999999E-003
  0.38157883999999997        4.4642859139999999E-003
  0.38596480000000000        4.4642859139999999E-003
  0.39035077000000001        4.4642859139999999E-003
  0.39473672999999998        4.4642859139999999E-003
  0.39912270000000000        4.4642859139999999E-003
  0.40350866000000002        4.4642859139999999E-003
  0.40789462999999998        4.4642859139999999E-003
  0.41228059000000000        4.4642859139999999E-003
  0.41666656000000002        4.4642859139999999E-003
  0.42105251999999999        4.4642859139999999E-003
  0.42543848000000001        4.4642859139999999E-003
  0.42982445000000002        4.4642859139999999E-003
  0.43421040999999999        4.4642859139999999E-003
  0.43859638000000001        4.4642859139999999E-003
  0.44298233999999997        4.4642859139999999E-003
  0.44736830999999999        4.4642859139999999E-003
  0.45175427000000001        4.4642859139999999E-003
  0.45614023999999997        4.4642859139999999E-003
  0.46052620000000000        4.4642859139999999E-003
  0.46491216000000002        4.4642859139999999E-003
  0.46929812999999998        4.4642859139999999E-003
  0.47368409000000000        4.4642859139999999E-003
  0.47807006000000002        4.4642859139999999E-003
  0.48245601999999999        4.4642859139999999E-003
  0.48684199000000000        4.4642859139999999E-003
  0.49122795000000002        4.4642859139999999E-003
  0.49561391999999999        4.4642859139999999E-003
  0.49999988000000001        4.4642859139999999E-003
  0.23684200999999999        4.3859650000000003E-003
  0.24122798000000001        4.3859650000000003E-003
  0.24561394000000000        4.3859650000000003E-003
  0.24999990000000000        4.3859650000000003E-003
  0.25438587000000001        4.3859650000000003E-003
  0.25877182999999998        4.3859650000000003E-003
  0.26315780000000000        4.3859650000000003E-003
  0.26754376000000002        4.3859650000000003E-003
  0.27192972999999998        4.3859650000000003E-003
  0.27631569000000000        4.3859650000000003E-003
  0.28070166000000002        4.3859650000000003E-003
  0.28508761999999999        4.3859650000000003E-003
  0.28947358000000001        4.3859650000000003E-003
  0.29385955000000002        4.3859650000000003E-003
  0.29824550999999999        4.3859650000000003E-003
  0.30263148000000001        4.3859650000000003E-003
  0.30701743999999997        4.3859650000000003E-003
  0.31140340999999999        4.3859650000000003E-003
  0.31578937000000001        4.3859650000000003E-003
  0.32017533999999997        4.3859650000000003E-003
  0.32456130000000000        4.3859650000000003E-003
  0.32894727000000001        4.3859650000000003E-003
  0.33333322999999998        4.3859650000000003E-003
  0.33771919000000000        4.3859650000000003E-003
  0.34210516000000002        4.3859650000000003E-003
  0.34649111999999999        4.3859650000000003E-003
  0.35087709000000000        4.3859650000000003E-003
  0.35526305000000002        4.3859650000000003E-003
  0.35964901999999999        4.3859650000000003E-003
  0.36403498000000001        4.3859650000000003E-003
  0.36842095000000002        4.3859650000000003E-003
  0.37280690999999999        4.3859650000000003E-003
  0.37719287000000001        4.3859650000000003E-003
  0.38157883999999997        4.3859650000000003E-003
  0.38596480000000000        4.3859650000000003E-003
  0.39035077000000001        4.3859650000000003E-003
  0.39473672999999998        4.3859650000000003E-003
  0.39912270000000000        4.3859650000000003E-003
  0.40350866000000002        4.3859650000000003E-003
  0.40789462999999998        4.3859650000000003E-003
  0.41228059000000000        4.3859650000000003E-003
  0.41666656000000002        4.3859650000000003E-003
  0.42105251999999999        4.3859650000000003E-003
  0.42543848000000001        4.3859650000000003E-003
  0.42982445000000002        4.3859650000000003E-003
  0.43421040999999999        4.3859650000000003E-003
  0.43859638000000001        4.3859650000000003E-003
  0.44298233999999997        4.3859650000000003E-003
  0.44736830999999999        4.3859650000000003E-003
  0.45175427000000001        4.3859650000000003E-003
  0.45614023999999997        4.3859650000000003E-003
  0.46052620000000000        4.3859650000000003E-003
  0.46491216000000002        4.3859650000000003E-003
  0.46929812999999998        4.3859650000000003E-003
  0.47368409000000000        4.3859650000000003E-003
  0.47807006000000002        4.3859650000000003E-003
  0.48245601999999999        4.3859650000000003E-003
  0.48684199000000000        4.3859650000000003E-003
  0.49122795000000002        4.3859650000000003E-003
  0.49561391999999999        4.3859650000000003E-003
  0.49999988000000001        4.3859650000000003E-003
  0.23684200999999999        8.7719301000000003E-003
  0.24122798000000001        8.7719301000000003E-003
  0.24561394000000000        8.7719301000000003E-003
  0.24999990000000000        8.7719301000000003E-003
  0.25438587000000001        8.7719301000000003E-003
  0.25877182999999998        8.7719301000000003E-003
  0.26315780000000000        8.7719301000000003E-003
  0.26754376000000002        8.7719301000000003E-003
  0.27192972999999998        8.7719301000000003E-003
  0.27631569000000000        8.7719301000000003E-003
  0.28070166000000002        8.7719301000000003E-003
  0.28508761999999999        8.7719301000000003E-003
  0.28947358000000001        8.7719301000000003E-003
  0.29385955000000002        8.7719301000000003E-003
  0.29824550999999999        8.7719301000000003E-003
  0.30263148000000001        8.7719301000000003E-003
  0.30701743999999997        8.7719301000000003E-003
  0.31140340999999999        8.7719301000000003E-003
  0.31578937000000001        8.7719301000000003E-003
  0.32017533999999997        8.7719301000000003E-003
  0.32456130000000000        8.7719301000000003E-003
  0.32894727000000001        8.7719301000000003E-003
  0.33333322999999998        8.7719301000000003E-003
  0.33771919000000000        8.7719301000000003E-003
  0.34210516000000002        8.7719301000000003E-003
  0.34649111999999999        8.7719301000000003E-003
  0.35087709000000000        8.7719301000000003E-003
  0.35526305000000002        8.7719301000000003E-003
  0.35964901999999999        8.7719301000000003E-003
  0.36403498000000001        8.7719301000000003E-003
  0.36842095000000002        8.7719301000000003E-003
  0.37280690999999999        8.7719301000000003E-003
  0.37719287000000001        8.7719301000000003E-003
  0.38157883999999997        8.7719301000000003E-003
  0.38596480000000000        8.7719301000000003E-003
  0.39035077000000001        8.7719301000000003E-003
  0.39473672999999998        8.7719301000000003E-003
  0.39912270000000000        8.7719301000000003E-003
  0.40350866000000002        8.7719301000000003E-003
  0.40789462999999998        8.7719301000000003E-003
  0.41228059000000000        8.7719301000000003E-003
  0.41666656000000002        8.7719301000000003E-003
  0.42105251999999999        8.7719301000000003E-003
  0.42543848000000001        8.7719301000000003E-003
  0.42982445000000002        8.7719301000000003E-003
  0.43421040999999999        8.7719301000000003E-003
  0.43859638000000001        8.7719301000000003E-003
  0.44298233999999997        8.7719301000000003E-003
  0.44736830999999999        8.7719301000000003E-003
  0.45175427000000001        8.7719301000000003E-003
  0.45614023999999997        8.7719301000000003E-003
  0.46052620000000000        8.7719301000000003E-003
  0.46491216000000002        8.7719301000000003E-003
  0.46929812999999998        8.7719301000000003E-003
  0.47368409000000000        8.7719301000000003E-003
  0.47807006000000002        8.7719301000000003E-003
  0.48245601999999999        8.7719301000000003E-003
  0.48684199000000000        8.7719301000000003E-003
  0.49122795000000002        8.7719301000000003E-003
  0.49561391999999999        8.7719301000000003E-003
  0.49999988000000001        8.7719301000000003E-003
  0.23684200999999999        1.3157894999999999E-002
  0.24122798000000001        1.3157894999999999E-002
  0.24561394000000000        1.3157894999999999E-002
  0.24999990000000000        1.3157894999999999E-002
  0.25438587000000001        1.3157894999999999E-002
  0.25877182999999998        1.3157894999999999E-002
  0.26315780000000000        1.3157894999999999E-002
  0.26754376000000002        1.3157894999999999E-002
  0.27192972999999998        1.3157894999999999E-002
  0.27631569000000000        1.3157894999999999E-002
  0.28070166000000002        1.3157894999999999E-002
  0.28508761999999999        1.3157894999999999E-002
  0.28947358000000001        1.3157894999999999E-002
  0.29385955000000002        1.3157894999999999E-002
  0.29824550999999999        1.3157894999999999E-002
  0.30263148000000001        1.3157894999999999E-002
  0.30701743999999997        1.3157894999999999E-002
  0.31140340999999999        1.3157894999999999E-002
  0.31578937000000001        1.3157894999999999E-002
  0.32017533999999997        1.3157894999999999E-002
  0.32456130000000000        1.3157894999999999E-002
  0.32894727000000001        1.3157894999999999E-002
  0.33333322999999998        1.3157894999999999E-002
  0.33771919000000000        1.3157894999999999E-002
  0.34210516000000002        1.3157894999999999E-002
  0.34649111999999999        1.3157894999999999E-002
  0.35087709000000000        1.3157894999999999E-002
  0.35526305000000002        1.3157894999999999E-002
  0.35964901999999999        1.3157894999999999E-002
  0.36403498000000001        1.3157894999999999E-002
  0.36842095000000002        1.3157894999999999E-002
  0.37280690999999999        1.3157894999999999E-002
  0.37719287000000001        1.3157894999999999E-002
  0.38157883999999997        1.3157894999999999E-002
  0.38596480000000000        1.3157894999999999E-002
  0.39035077000000001        1.3157894999999999E-002
  0.39473672999999998        1.3157894999999999E-002
  0.39912270000000000        1.3157894999999999E-002
  0.40350866000000002        1.3157894999999999E-002
  0.40789462999999998        1.3157894999999999E-002
  0.41228059000000000        1.3157894999999999E-002
  0.41666656000000002        1.3157894999999999E-002
  0.42105251999999999        1.3157894999999999E-002
  0.42543848000000001        1.3157894999999999E-002
  0.42982445000000002        1.3157894999999999E-002
  0.43421040999999999        1.3157894999999999E-002
  0.43859638000000001        1.3157894999999999E-002
  0.44298233999999997        1.3157894999999999E-002
  0.44736830999999999        1.3157894999999999E-002
  0.45175427000000001        1.3157894999999999E-002
  0.45614023999999997        1.3157894999999999E-002
  0.46052620000000000        1.3157894999999999E-002
  0.46491216000000002        1.3157894999999999E-002
  0.46929812999999998        1.3157894999999999E-002
  0.47368409000000000        1.3157894999999999E-002
  0.47807006000000002        1.3157894999999999E-002
  0.48245601999999999        1.3157894999999999E-002
  0.48684199000000000        1.3157894999999999E-002
  0.49122795000000002        1.3157894999999999E-002
  0.49561391999999999        1.3157894999999999E-002
  0.49999988000000001        1.3157894999999999E-002
  0.23684200999999999        1.7543860000000001E-002
  0.24122798000000001        1.7543860000000001E-002
  0.24561394000000000        1.7543860000000001E-002
  0.24999990000000000        1.7543860000000001E-002
  0.25438587000000001        1.7543860000000001E-002
  0.25877182999999998        1.7543860000000001E-002
  0.26315780000000000        1.7543860000000001E-002
  0.26754376000000002        1.7543860000000001E-002
  0.27192972999999998        1.7543860000000001E-002
  0.27631569000000000        1.7543860000000001E-002
  0.28070166000000002        1.7543860000000001E-002
  0.28508761999999999        1.7543860000000001E-002
  0.28947358000000001        1.7543860000000001E-002
  0.29385955000000002        1.7543860000000001E-002
  0.29824550999999999        1.7543860000000001E-002
  0.30263148000000001        1.7543860000000001E-002
  0.30701743999999997        1.7543860000000001E-002
  0.31140340999999999        1.7543860000000001E-002
  0.31578937000000001        1.7543860000000001E-002
  0.32017533999999997        1.7543860000000001E-002
  0.32456130000000000        1.7543860000000001E-002
  0.32894727000000001        1.7543860000000001E-002
  0.33333322999999998        1.7543860000000001E-002
  0.33771919000000000        1.7543860000000001E-002
  0.34210516000000002        1.7543860000000001E-002
  0.34649111999999999        1.7543860000000001E-002
  0.35087709000000000        1.7543860000000001E-002
  0.35526305000000002        1.7543860000000001E-002
  0.35964901999999999        1.7543860000000001E-002
  0.36403498000000001        1.7543860000000001E-002
  0.36842095000000002        1.7543860000000001E-002
  0.37280690999999999        1.7543860000000001E-002
  0.37719287000000001        1.7543860000000001E-002
  0.38157883999999997        1.7543860000000001E-002
  0.38596480000000000        1.7543860000000001E-002
  0.39035077000000001        1.7543860000000001E-002
  0.39473672999999998        1.7543860000000001E-002
  0.39912270000000000        1.7543860000000001E-002
  0.40350866000000002        1.7543860000000001E-002
  0.40789462999999998        1.7543860000000001E-002
  0.41228059000000000        1.7543860000000001E-002
  0.41666656000000002        1.7543860000000001E-002
  0.42105251999999999        1.7543860000000001E-002
  0.42543848000000001        1.7543860000000001E-002
  0.42982445000000002        1.7543860000000001E-002
  0.43421040999999999        1.7543860000000001E-002
  0.43859638000000001        1.7543860000000001E-002
  0.44298233999999997        1.7543860000000001E-002
  0.44736830999999999        1.7543860000000001E-002
  0.45175427000000001        1.7543860000000001E-002
  0.45614023999999997        1.7543860000000001E-002
  0.46052620000000000        1.7543860000000001E-002
  0.46491216000000002        1.7543860000000001E-002
  0.46929812999999998        1.7543860000000001E-002
  0.47368409000000000        1.7543860000000001E-002
  0.47807006000000002        1.7543860000000001E-002
  0.48245601999999999        1.7543860000000001E-002
  0.48684199000000000        1.7543860000000001E-002
  0.49122795000000002        1.7543860000000001E-002
  0.49561391999999999        1.7543860000000001E-002
  0.49999988000000001        1.7543860000000001E-002
  0.23684200999999999        2.1929825000000000E-002
  0.24122798000000001        2.1929825000000000E-002
  0.24561394000000000        2.1929825000000000E-002
  0.24999990000000000        2.1929825000000000E-002
  0.25438587000000001        2.1929825000000000E-002
  0.25877182999999998        2.1929825000000000E-002
  0.26315780000000000        2.1929825000000000E-002
  0.26754376000000002        2.1929825000000000E-002
  0.27192972999999998        2.1929825000000000E-002
  0.27631569000000000        2.1929825000000000E-002
  0.28070166000000002        2.1929825000000000E-002
  0.28508761999999999        2.1929825000000000E-002
  0.28947358000000001        2.1929825000000000E-002
  0.29385955000000002        2.1929825000000000E-002
  0.29824550999999999        2.1929825000000000E-002
  0.30263148000000001        2.1929825000000000E-002
  0.30701743999999997        2.1929825000000000E-002
  0.31140340999999999        2.1929825000000000E-002
  0.31578937000000001        2.1929825000000000E-002
  0.32017533999999997        2.1929825000000000E-002
  0.32456130000000000        2.1929825000000000E-002
  0.32894727000000001        2.1929825000000000E-002
  0.33333322999999998        2.1929825000000000E-002
  0.33771919000000000        2.1929825000000000E-002
  0.34210516000000002        2.1929825000000000E-002
  0.34649111999999999        2.1929825000000000E-002
  0.35087709000000000        2.1929825000000000E-002
  0.35526305000000002        2.1929825000000000E-002
  0.35964901999999999        2.1929825000000000E-002
  0.36403498000000001        2.1929825000000000E-002
  0.36842095000000002        2.1929825000000000E-002
  0.37280690999999999        2.1929825000000000E-002
  0.37719287000000001        2.1929825000000000E-002
  0.38157883999999997        2.1929825000000000E-002
  0.38596480000000000        2.1929825000000000E-002
  0.39035077000000001        2.1929825000000000E-002
  0.39473672999999998        2.1929825000000000E-002
  0.39912270000000000        2.1929825000000000E-002
  0.40350866000000002        2.1929825000000000E-002
  0.40789462999999998        2.1929825000000000E-002
  0.41228059000000000        2.1929825000000000E-002
  0.41666656000000002        2.1929825000000000E-002
  0.42105251999999999        2.1929825000000000E-002
  0.42543848000000001        2.1929825000000000E-002
  0.42982445000000002        2.1929825000000000E-002
  0.43421040999999999        2.1929825000000000E-002
  0.43859638000000001        2.1929825000000000E-002
  0.44298233999999997        2.1929825000000000E-002
  0.44736830999999999        2.1929825000000000E-002
  0.45175427000000001        2.1929825000000000E-002
  0.45614023999999997        2.1929825000000000E-002
  0.46052620000000000        2.1929825000000000E-002
  0.46491216000000002        2.1929825000000000E-002
  0.46929812999999998        2.1929825000000000E-002
  0.47368409000000000        2.1929825000000000E-002
  0.47807006000000002        2.1929825000000000E-002
  0.48245601999999999        2.1929825000000000E-002
  0.48684199000000000        2.1929825000000000E-002
  0.49122795000000002        2.1929825000000000E-002
  0.49561391999999999        2.1929825000000000E-002
  0.49999988000000001        2.1929825000000000E-002
  0.23684200999999999        2.6315789999999999E-002
  0.24122798000000001        2.6315789999999999E-002
  0.24561394000000000        2.6315789999999999E-002
  0.24999990000000000        2.6315789999999999E-002
  0.25438587000000001        2.6315789999999999E-002
  0.25877182999999998        2.6315789999999999E-002
  0.26315780000000000        2.6315789999999999E-002
  0.26754376000000002        2.6315789999999999E-002
  0.27192972999999998        2.6315789999999999E-002
  0.27631569000000000        2.6315789999999999E-002
  0.28070166000000002        2.6315789999999999E-002
  0.28508761999999999        2.6315789999999999E-002
  0.28947358000000001        2.6315789999999999E-002
  0.29385955000000002        2.6315789999999999E-002
  0.29824550999999999        2.6315789999999999E-002
  0.30263148000000001        2.6315789999999999E-002
  0.30701743999999997        2.6315789999999999E-002
  0.31140340999999999        2.6315789999999999E-002
  0.31578937000000001        2.6315789999999999E-002
  0.32017533999999997        2.6315789999999999E-002
  0.32456130000000000        2.6315789999999999E-002
  0.32894727000000001        2.6315789999999999E-002
  0.33333322999999998        2.6315789999999999E-002
  0.33771919000000000        2.6315789999999999E-002
  0.34210516000000002        2.6315789999999999E-002
  0.34649111999999999        2.6315789999999999E-002
  0.35087709000000000        2.6315789999999999E-002
  0.35526305000000002        2.6315789999999999E-002
  0.35964901999999999        2.6315789999999999E-002
  0.36403498000000001        2.6315789999999999E-002
  0.36842095000000002        2.6315789999999999E-002
  0.37280690999999999        2.6315789999999999E-002
  0.37719287000000001        2.6315789999999999E-002
  0.38157883999999997        2.6315789999999999E-002
  0.38596480000000000        2.6315789999999999E-002
  0.39035077000000001        2.6315789999999999E-002
  0.39473672999999998        2.6315789999999999E-002
  0.39912270000000000        2.6315789999999999E-002
  0.40350866000000002        2.6315789999999999E-002
  0.40789462999999998        2.6315789999999999E-002
  0.41228059000000000        2.6315789999999999E-002
  0.41666656000000002        2.6315789999999999E-002
  0.42105251999999999        2.6315789999999999E-002
  0.42543848000000001        2.6315789999999999E-002
  0.42982445000000002        2.6315789999999999E-002
  0.43421040999999999        2.6315789999999999E-002
  0.43859638000000001        2.6315789999999999E-002
  0.44298233999999997        2.6315789999999999E-002
  0.44736830999999999        2.6315789999999999E-002
  0.45175427000000001        2.6315789999999999E-002
  0.45614023999999997        2.6315789999999999E-002
  0.46052620000000000        2.6315789999999999E-002
  0.46491216000000002        2.6315789999999999E-002
  0.46929812999999998        2.6315789999999999E-002
  0.47368409000000000        2.6315789999999999E-002
  0.47807006000000002        2.6315789999999999E-002
  0.48245601999999999        2.6315789999999999E-002
  0.48684199000000000        2.6315789999999999E-002
  0.49122795000000002        2.6315789999999999E-002
  0.49561391999999999        2.6315789999999999E-002
  0.49999988000000001        2.6315789999999999E-002
  0.23684200999999999        3.0701755000000001E-002
  0.24122798000000001        3.0701755000000001E-002
  0.24561394000000000        3.0701755000000001E-002
  0.24999990000000000        3.0701755000000001E-002
  0.25438587000000001        3.0701755000000001E-002
  0.25877182999999998        3.0701755000000001E-002
  0.26315780000000000        3.0701755000000001E-002
  0.26754376000000002        3.0701755000000001E-002
  0.27192972999999998        3.0701755000000001E-002
  0.27631569000000000        3.0701755000000001E-002
  0.28070166000000002        3.0701755000000001E-002
  0.28508761999999999        3.0701755000000001E-002
  0.28947358000000001        3.0701755000000001E-002
  0.29385955000000002        3.0701755000000001E-002
  0.29824550999999999        3.0701755000000001E-002
  0.30263148000000001        3.0701755000000001E-002
  0.30701743999999997        3.0701755000000001E-002
  0.31140340999999999        3.0701755000000001E-002
  0.31578937000000001        3.0701755000000001E-002
  0.32017533999999997        3.0701755000000001E-002
  0.32456130000000000        3.0701755000000001E-002
  0.32894727000000001        3.0701755000000001E-002
  0.33333322999999998        3.0701755000000001E-002
  0.33771919000000000        3.0701755000000001E-002
  0.34210516000000002        3.0701755000000001E-002
  0.34649111999999999        3.0701755000000001E-002
  0.35087709000000000        3.0701755000000001E-002
  0.35526305000000002        3.0701755000000001E-002
  0.35964901999999999        3.0701755000000001E-002
  0.36403498000000001        3.0701755000000001E-002
  0.36842095000000002        3.0701755000000001E-002
  0.37280690999999999        3.0701755000000001E-002
  0.37719287000000001        3.0701755000000001E-002
  0.38157883999999997        3.0701755000000001E-002
  0.38596480000000000        3.0701755000000001E-002
  0.39035077000000001        3.0701755000000001E-002
  0.39473672999999998        3.0701755000000001E-002
  0.39912270000000000        3.0701755000000001E-002
  0.40350866000000002        3.0701755000000001E-002
  0.40789462999999998        3.0701755000000001E-002
  0.41228059000000000        3.0701755000000001E-002
  0.41666656000000002        3.0701755000000001E-002
  0.42105251999999999        3.0701755000000001E-002
  0.42543848000000001        3.0701755000000001E-002
  0.42982445000000002        3.0701755000000001E-002
  0.43421040999999999        3.0701755000000001E-002
  0.43859638000000001        3.0701755000000001E-002
  0.44298233999999997        3.0701755000000001E-002
  0.44736830999999999        3.0701755000000001E-002
  0.45175427000000001        3.0701755000000001E-002
  0.45614023999999997        3.0701755000000001E-002
  0.46052620000000000        3.0701755000000001E-002
  0.46491216000000002        3.0701755000000001E-002
  0.46929812999999998        3.0701755000000001E-002
  0.47368409000000000        3.0701755000000001E-002
  0.47807006000000002        3.0701755000000001E-002
  0.48245601999999999        3.0701755000000001E-002
  0.48684199000000000        3.0701755000000001E-002
  0.49122795000000002        3.0701755000000001E-002
  0.49561391999999999        3.0701755000000001E-002
  0.49999988000000001        3.0701755000000001E-002
  0.23684200999999999        3.5087720000000003E-002
  0.24122798000000001        3.5087720000000003E-002
  0.24561394000000000        3.5087720000000003E-002
  0.24999990000000000        3.5087720000000003E-002
  0.25438587000000001        3.5087720000000003E-002
  0.25877182999999998        3.5087720000000003E-002
  0.26315780000000000        3.5087720000000003E-002
  0.26754376000000002        3.5087720000000003E-002
  0.27192972999999998        3.5087720000000003E-002
  0.27631569000000000        3.5087720000000003E-002
  0.28070166000000002        3.5087720000000003E-002
  0.28508761999999999        3.5087720000000003E-002
  0.28947358000000001        3.5087720000000003E-002
  0.29385955000000002        3.5087720000000003E-002
  0.29824550999999999        3.5087720000000003E-002
  0.30263148000000001        3.5087720000000003E-002
  0.30701743999999997        3.5087720000000003E-002
  0.31140340999999999        3.5087720000000003E-002
  0.31578937000000001        3.5087720000000003E-002
  0.32017533999999997        3.5087720000000003E-002
  0.32456130000000000        3.5087720000000003E-002
  0.32894727000000001        3.5087720000000003E-002
  0.33333322999999998        3.5087720000000003E-002
  0.33771919000000000        3.5087720000000003E-002
  0.34210516000000002        3.5087720000000003E-002
  0.34649111999999999        3.5087720000000003E-002
  0.35087709000000000        3.5087720000000003E-002
  0.35526305000000002        3.5087720000000003E-002
  0.35964901999999999        3.5087720000000003E-002
  0.36403498000000001        3.5087720000000003E-002
  0.36842095000000002        3.5087720000000003E-002
  0.37280690999999999        3.5087720000000003E-002
  0.37719287000000001        3.5087720000000003E-002
  0.38157883999999997        3.5087720000000003E-002
  0.38596480000000000        3.5087720000000003E-002
  0.39035077000000001        3.5087720000000003E-002
  0.39473672999999998        3.5087720000000003E-002
  0.39912270000000000        3.5087720000000003E-002
  0.40350866000000002        3.5087720000000003E-002
  0.40789462999999998        3.5087720000000003E-002
  0.41228059000000000        3.5087720000000003E-002
  0.41666656000000002        3.5087720000000003E-002
  0.42105251999999999        3.5087720000000003E-002
  0.42543848000000001        3.5087720000000003E-002
  0.42982445000000002        3.5087720000000003E-002
  0.43421040999999999        3.5087720000000003E-002
  0.43859638000000001        3.5087720000000003E-002
  0.44298233999999997        3.5087720000000003E-002
  0.44736830999999999        3.5087720000000003E-002
  0.45175427000000001        3.5087720000000003E-002
  0.45614023999999997        3.5087720000000003E-002
  0.46052620000000000        3.5087720000000003E-002
  0.46491216000000002        3.5087720000000003E-002
  0.46929812999999998        3.5087720000000003E-002
  0.47368409000000000        3.5087720000000003E-002
  0.47807006000000002        3.5087720000000003E-002
  0.48245601999999999        3.5087720000000003E-002
  0.48684199000000000        3.5087720000000003E-002
  0.49122795000000002        3.5087720000000003E-002
  0.49561391999999999        3.5087720000000003E-002
  0.49999988000000001        3.5087720000000003E-002
  0.23684200999999999        3.9473685000000001E-002
  0.24122798000000001        3.9473685000000001E-002
  0.24561394000000000        3.9473685000000001E-002
  0.24999990000000000        3.9473685000000001E-002
  0.25438587000000001        3.9473685000000001E-002
  0.25877182999999998        3.9473685000000001E-002
  0.26315780000000000        3.9473685000000001E-002
  0.26754376000000002        3.9473685000000001E-002
  0.27192972999999998        3.9473685000000001E-002
  0.27631569000000000        3.9473685000000001E-002
  0.28070166000000002        3.9473685000000001E-002
  0.28508761999999999        3.9473685000000001E-002
  0.28947358000000001        3.9473685000000001E-002
  0.29385955000000002        3.9473685000000001E-002
  0.29824550999999999        3.9473685000000001E-002