 TITLE = "GRIDBLO_BC0014"
 VARIABLES = "X","Y"
ZONE I=   287,J=   127  ,DATAPACKING=POINT
  0.94736832999999998       0.50000001000000005     
  0.95175430000000005       0.50000001000000005     
  0.95614025999999996       0.50000001000000005     
  0.96052623000000004       0.50000001000000005     
  0.96491218999999995       0.50000001000000005     
  0.96929816000000002       0.50000001000000005     
  0.97368412000000004       0.50000001000000005     
  0.97807009000000000       0.50000001000000005     
  0.98245605000000003       0.50000001000000005     
  0.98684201999999999       0.50000001000000005     
  0.99122798000000001       0.50000001000000005     
  0.99561394999999997       0.50000001000000005     
  0.99999990999999999       0.50000001000000005     
   1.0089199000000000       0.50000001000000005     
   1.0178267999999999       0.50000001000000005     
   1.0267206000000000       0.50000001000000005     
   1.0356014000000000       0.50000001000000005     
   1.0444690999999999       0.50000001000000005     
   1.0533237000000000       0.50000001000000005     
   1.0621653000000000       0.50000001000000005     
   1.0709940000000000       0.50000001000000005     
   1.0798095999999999       0.50000001000000005     
   1.0886122000000000       0.50000001000000005     
   1.0974018999999999       0.50000001000000005     
   1.1061786000000000       0.50000001000000005     
   1.1149423000000001       0.50000001000000005     
   1.1236931999999999       0.50000001000000005     
   1.1324311000000000       0.50000001000000005     
   1.1411560999999999       0.50000001000000005     
   1.1498682000000000       0.50000001000000005     
   1.1585675000000000       0.50000001000000005     
   1.1672539000000000       0.50000001000000005     
   1.1759275000000000       0.50000001000000005     
   1.1845882999999999       0.50000001000000005     
   1.1932362000000001       0.50000001000000005     
   1.2018713000000001       0.50000001000000005     
   1.2104937000000000       0.50000001000000005     
   1.2191033000000000       0.50000001000000005     
   1.2277001000000001       0.50000001000000005     
   1.2362842000000001       0.50000001000000005     
   1.2448554999999999       0.50000001000000005     
   1.2534141999999999       0.50000001000000005     
   1.2619601000000000       0.50000001000000005     
   1.2704933000000000       0.50000001000000005     
   1.2790139000000000       0.50000001000000005     
   1.2875217999999999       0.50000001000000005     
   1.2960171000000000       0.50000001000000005     
   1.3044998000000001       0.50000001000000005     
   1.3129698000000001       0.50000001000000005     
   1.3214272000000000       0.50000001000000005     
   1.3298721000000000       0.50000001000000005     
   1.3383042999999999       0.50000001000000005     
   1.3467240000000000       0.50000001000000005     
   1.3551312000000000       0.50000001000000005     
   1.3635257999999999       0.50000001000000005     
   1.3719079000000001       0.50000001000000005     
   1.3802775000000000       0.50000001000000005     
   1.3886347000000001       0.50000001000000005     
   1.3969792999999999       0.50000001000000005     
   1.4053115000000000       0.50000001000000005     
   1.4136312000000000       0.50000001000000005     
   1.4219385000000000       0.50000001000000005     
   1.4302333000000000       0.50000001000000005     
   1.4385158000000000       0.50000001000000005     
   1.4467859000000001       0.50000001000000005     
   1.4550434999999999       0.50000001000000005     
   1.4632887999999999       0.50000001000000005     
   1.4715218000000001       0.50000001000000005     
   1.4797423999999999       0.50000001000000005     
   1.4879507000000001       0.50000001000000005     
   1.4961466999999999       0.50000001000000005     
   1.5043304000000000       0.50000001000000005     
   1.5125017999999999       0.50000001000000005     
   1.5206609000000000       0.50000001000000005     
   1.5288078000000001       0.50000001000000005     
   1.5369424000000000       0.50000001000000005     
   1.5450648000000000       0.50000001000000005     
   1.5531750000000000       0.50000001000000005     
   1.5612729000000001       0.50000001000000005     
   1.5693587000000000       0.50000001000000005     
   1.5774322999999999       0.50000001000000005     
   1.5854938000000001       0.50000001000000005     
   1.5935431000000000       0.50000001000000005     
   1.6015801999999999       0.50000001000000005     
   1.6096052999999999       0.50000001000000005     
   1.6176181999999999       0.50000001000000005     
   1.6256189999999999       0.50000001000000005     
   1.6336078000000001       0.50000001000000005     
   1.6415843999999999       0.50000001000000005     
   1.6495491000000000       0.50000001000000005     
   1.6575017000000001       0.50000001000000005     
   1.6654422000000000       0.50000001000000005     
   1.6733707000000000       0.50000001000000005     
   1.6812872999999999       0.50000001000000005     
   1.6891917999999999       0.50000001000000005     
   1.6970844000000000       0.50000001000000005     
   1.7049650000000001       0.50000001000000005     
   1.7128337000000000       0.50000001000000005     
   1.7206904000000001       0.50000001000000005     
   1.7285352000000000       0.50000001000000005     
   1.7363681000000000       0.50000001000000005     
   1.7441891000000000       0.50000001000000005     
   1.7519982999999999       0.50000001000000005     
   1.7597955000000001       0.50000001000000005     
   1.7675809000000000       0.50000001000000005     
   1.7753544999999999       0.50000001000000005     
   1.7831162000000000       0.50000001000000005     
   1.7908660999999999       0.50000001000000005     
   1.7986042000000000       0.50000001000000005     
   1.8063305000000001       0.50000001000000005     
   1.8140451000000000       0.50000001000000005     
   1.8217478000000000       0.50000001000000005     
   1.8294389000000000       0.50000001000000005     
   1.8371181999999999       0.50000001000000005     
   1.8447857000000001       0.50000001000000005     
   1.8524415999999999       0.50000001000000005     
   1.8600857000000000       0.50000001000000005     
   1.8677182000000001       0.50000001000000005     
   1.8753390000000001       0.50000001000000005     
   1.8829482000000000       0.50000001000000005     
   1.8905457000000001       0.50000001000000005     
   1.8981315000000001       0.50000001000000005     
   1.9057058000000000       0.50000001000000005     
   1.9132684000000000       0.50000001000000005     
   1.9208194999999999       0.50000001000000005     
   1.9283589000000001       0.50000001000000005     
   1.9358868000000000       0.50000001000000005     
   1.9434031000000000       0.50000001000000005     
   1.9509079000000000       0.50000001000000005     
   1.9584012000000000       0.50000001000000005     
   1.9658830000000000       0.50000001000000005     
   1.9733532000000000       0.50000001000000005     
   1.9808120000000000       0.50000001000000005     
   1.9882593000000000       0.50000001000000005     
   1.9956951000000001       0.50000001000000005     
   2.0031194000000001       0.50000001000000005     
   2.0105324000000002       0.50000001000000005     
   2.0179338000000002       0.50000001000000005     
   2.0253239000000001       0.50000001000000005     
   2.0327025999999999       0.50000001000000005     
   2.0400699000000002       0.50000001000000005     
   2.0474258000000001       0.50000001000000005     
   2.0547704000000002       0.50000001000000005     
   2.0621035999999999       0.50000001000000005     
   2.0694254999999999       0.50000001000000005     
   2.0767359999999999       0.50000001000000005     
   2.0840352000000002       0.50000001000000005     
   2.0913232000000002       0.50000001000000005     
   2.0985998000000001       0.50000001000000005     
   2.1058652000000002       0.50000001000000005     
   2.1131193000000001       0.50000001000000005     
   2.1203620999999999       0.50000001000000005     
   2.1275938000000001       0.50000001000000005     
   2.1348142000000001       0.50000001000000005     
   2.1420233999999998       0.50000001000000005     
   2.1492214000000001       0.50000001000000005     
   2.1564082000000000       0.50000001000000005     
   2.1635838000000001       0.50000001000000005     
   2.1707483000000001       0.50000001000000005     
   2.1779016000000002       0.50000001000000005     
   2.1850437999999999       0.50000001000000005     
   2.1921748999999999       0.50000001000000005     
   2.1992948000000001       0.50000001000000005     
   2.2064037000000001       0.50000001000000005     
   2.2135014000000002       0.50000001000000005     
   2.2205881000000001       0.50000001000000005     
   2.2276638000000002       0.50000001000000005     
   2.2347283999999998       0.50000001000000005     
   2.2417818999999999       0.50000001000000005     
   2.2488244000000002       0.50000001000000005     
   2.2558560000000001       0.50000001000000005     
   2.2628765000000000       0.50000001000000005     
   2.2698860000000001       0.50000001000000005     
   2.2768845999999998       0.50000001000000005     
   2.2838721999999998       0.50000001000000005     
   2.2908488000000000       0.50000001000000005     
   2.2978144999999999       0.50000001000000005     
   2.3047692999999998       0.50000001000000005     
   2.3117131999999998       0.50000001000000005     
   2.3186461000000000       0.50000001000000005     
   2.3255682000000002       0.50000001000000005     
   2.3324794000000000       0.50000001000000005     
   2.3393798000000001       0.50000001000000005     
   2.3462692999999999       0.50000001000000005     
   2.3531479000000002       0.50000001000000005     
   2.3600156999999999       0.50000001000000005     
   2.3668727999999999       0.50000001000000005     
   2.3737189999999999       0.50000001000000005     
   2.3805543999999998       0.50000001000000005     
   2.3873790000000001       0.50000001000000005     
   2.3941929000000002       0.50000001000000005     
   2.4009960000000001       0.50000001000000005     
   2.4077883999999998       0.50000001000000005     
   2.4145699999999999       0.50000001000000005     
   2.4213410000000000       0.50000001000000005     
   2.4281012000000000       0.50000001000000005     
   2.4348507000000001       0.50000001000000005     
   2.4415895999999999       0.50000001000000005     
   2.4483177999999999       0.50000001000000005     
   2.4550353000000000       0.50000001000000005     
   2.4617422000000002       0.50000001000000005     
   2.4684384000000001       0.50000001000000005     
   2.4751240000000001       0.50000001000000005     
   2.4817990000000001       0.50000001000000005     
   2.4884634999999999       0.50000001000000005     
   2.4951173000000000       0.50000001000000005     
   2.5017605000000001       0.50000001000000005     
   2.5083932000000000       0.50000001000000005     
   2.5150153999999998       0.50000001000000005     
   2.5216270000000001       0.50000001000000005     
   2.5282281000000002       0.50000001000000005     
   2.5348185999999999       0.50000001000000005     
   2.5413986999999998       0.50000001000000005     
   2.5479683000000000       0.50000001000000005     
   2.5545274000000000       0.50000001000000005     
   2.5610759999999999       0.50000001000000005     
   2.5676142000000000       0.50000001000000005     
   2.5741418999999999       0.50000001000000005     
   2.5806591999999999       0.50000001000000005     
   2.5871661000000001       0.50000001000000005     
   2.5936626000000000       0.50000001000000005     
   2.6001487000000001       0.50000001000000005     
   2.6066243999999998       0.50000001000000005     
   2.6130897000000002       0.50000001000000005     
   2.6195447000000001       0.50000001000000005     
   2.6259893000000001       0.50000001000000005     
   2.6324234999999998       0.50000001000000005     
   2.6388474999999998       0.50000001000000005     
   2.6452610999999999       0.50000001000000005     
   2.6516644999999999       0.50000001000000005     
   2.6580575000000000       0.50000001000000005     
   2.6644402999999999       0.50000001000000005     
   2.6708128000000002       0.50000001000000005     
   2.6771750000000001       0.50000001000000005     
   2.6835271000000001       0.50000001000000005     
   2.6898688000000002       0.50000001000000005     
   2.6962003999999999       0.50000001000000005     
   2.7025217000000001       0.50000001000000005     
   2.7088329000000000       0.50000001000000005     
   2.7151337999999998       0.50000001000000005     
   2.7214246000000002       0.50000001000000005     
   2.7277051999999999       0.50000001000000005     
   2.7339756999999998       0.50000001000000005     
   2.7402359999999999       0.50000001000000005     
   2.7464862000000001       0.50000001000000005     
   2.7527263000000000       0.50000001000000005     
   2.7589562999999999       0.50000001000000005     
   2.7651762000000000       0.50000001000000005     
   2.7713860000000001       0.50000001000000005     
   2.7775856999999999       0.50000001000000005     
   2.7837754000000001       0.50000001000000005     
   2.7899550999999998       0.50000001000000005     
   2.7961247000000000       0.50000001000000005     
   2.8022841999999999       0.50000001000000005     
   2.8084338000000000       0.50000001000000005     
   2.8145733000000002       0.50000001000000005     
   2.8207029000000001       0.50000001000000005     
   2.8268225000000000       0.50000001000000005     
   2.8329320999999998       0.50000001000000005     
   2.8390317000000000       0.50000001000000005     
   2.8451214999999999       0.50000001000000005     
   2.8512012000000002       0.50000001000000005     
   2.8572711000000002       0.50000001000000005     
   2.8633310000000001       0.50000001000000005     
   2.8693811000000000       0.50000001000000005     
   2.8754211999999999       0.50000001000000005     
   2.8814514999999998       0.50000001000000005     
   2.8874719000000000       0.50000001000000005     
   2.8934825000000002       0.50000001000000005     
   2.8994832000000001       0.50000001000000005     
   2.9054741000000002       0.50000001000000005     
   2.9114551000000000       0.50000001000000005     
   2.9174264000000001       0.50000001000000005     
   2.9233878000000000       0.50000001000000005     
   2.9293395000000002       0.50000001000000005     
   2.9352814000000000       0.50000001000000005     
   2.9412134999999999       0.50000001000000005     
   2.9471359000000001       0.50000001000000005     
   2.9530485000000000       0.50000001000000005     
   2.9589514000000001       0.50000001000000005     
   2.9648444999999999       0.50000001000000005     
   2.9707279999999998       0.50000001000000005     
   2.9766016999999998       0.50000001000000005     
   2.9824657999999999       0.50000001000000005     
   2.9883202000000000       0.50000001000000005     
   2.9941648999999999       0.50000001000000005     
   3.0000000000000000       0.50000001000000005     
  0.94736832999999998       0.50438598000000001     
  0.95175430000000005       0.50438598000000001     
  0.95614025999999996       0.50438598000000001     
  0.96052623000000004       0.50438598000000001     
  0.96491218999999995       0.50438598000000001     
  0.96929816000000002       0.50438598000000001     
  0.97368412000000004       0.50438598000000001     
  0.97807009000000000       0.50438598000000001     
  0.98245605000000003       0.50438598000000001     
  0.98684201999999999       0.50438598000000001     
  0.99122798000000001       0.50438598000000001     
  0.99561394999999997       0.50438598000000001     
  0.99999990999999999       0.50438598000000001     
   1.0089199000000000       0.50438598000000001     
   1.0178267999999999       0.50438598000000001     
   1.0267206000000000       0.50438598000000001     
   1.0356014000000000       0.50438598000000001     
   1.0444690999999999       0.50438598000000001     
   1.0533237000000000       0.50438598000000001     
   1.0621653000000000       0.50438598000000001     
   1.0709940000000000       0.50438598000000001     
   1.0798095999999999       0.50438598000000001     
   1.0886122000000000       0.50438598000000001     
   1.0974018999999999       0.50438598000000001     
   1.1061786000000000       0.50438598000000001     
   1.1149423000000001       0.50438598000000001     
   1.1236931999999999       0.50438598000000001     
   1.1324311000000000       0.50438598000000001     
   1.1411560999999999       0.50438598000000001     
   1.1498682000000000       0.50438598000000001     
   1.1585675000000000       0.50438598000000001     
   1.1672539000000000       0.50438598000000001     
   1.1759275000000000       0.50438598000000001     
   1.1845882999999999       0.50438598000000001     
   1.1932362000000001       0.50438598000000001     
   1.2018713000000001       0.50438598000000001     
   1.2104937000000000       0.50438598000000001     
   1.2191033000000000       0.50438598000000001     
   1.2277001000000001       0.50438598000000001     
   1.2362842000000001       0.50438598000000001     
   1.2448554999999999       0.50438598000000001     
   1.2534141999999999       0.50438598000000001     
   1.2619601000000000       0.50438598000000001     
   1.2704933000000000       0.50438598000000001     
   1.2790139000000000       0.50438598000000001     
   1.2875217999999999       0.50438598000000001     
   1.2960171000000000       0.50438598000000001     
   1.3044998000000001       0.50438598000000001     
   1.3129698000000001       0.50438598000000001     
   1.3214272000000000       0.50438598000000001     
   1.3298721000000000       0.50438598000000001     
   1.3383042999999999       0.50438598000000001     
   1.3467240000000000       0.50438598000000001     
   1.3551312000000000       0.50438598000000001     
   1.3635257999999999       0.50438598000000001     
   1.3719079000000001       0.50438598000000001     
   1.3802775000000000       0.50438598000000001     
   1.3886347000000001       0.50438598000000001     
   1.3969792999999999       0.50438598000000001     
   1.4053115000000000       0.50438598000000001     
   1.4136312000000000       0.50438598000000001     
   1.4219385000000000       0.50438598000000001     
   1.4302333000000000       0.50438598000000001     
   1.4385158000000000       0.50438598000000001     
   1.4467859000000001       0.50438598000000001     
   1.4550434999999999       0.50438598000000001     
   1.4632887999999999       0.50438598000000001     
   1.4715218000000001       0.50438598000000001     
   1.4797423999999999       0.50438598000000001     
   1.4879507000000001       0.50438598000000001     
   1.4961466999999999       0.50438598000000001     
   1.5043304000000000       0.50438598000000001     
   1.5125017999999999       0.50438598000000001     
   1.5206609000000000       0.50438598000000001     
   1.5288078000000001       0.50438598000000001     
   1.5369424000000000       0.50438598000000001     
   1.5450648000000000       0.50438598000000001     
   1.5531750000000000       0.50438598000000001     
   1.5612729000000001       0.50438598000000001     
   1.5693587000000000       0.50438598000000001     
   1.5774322999999999       0.50438598000000001     
   1.5854938000000001       0.50438598000000001     
   1.5935431000000000       0.50438598000000001     
   1.6015801999999999       0.50438598000000001     
   1.6096052999999999       0.50438598000000001     
   1.6176181999999999       0.50438598000000001     
   1.6256189999999999       0.50438598000000001     
   1.6336078000000001       0.50438598000000001     
   1.6415843999999999       0.50438598000000001     
   1.6495491000000000       0.50438598000000001     
   1.6575017000000001       0.50438598000000001     
   1.6654422000000000       0.50438598000000001     
   1.6733707000000000       0.50438598000000001     
   1.6812872999999999       0.50438598000000001     
   1.6891917999999999       0.50438598000000001     
   1.6970844000000000       0.50438598000000001     
   1.7049650000000001       0.50438598000000001     
   1.7128337000000000       0.50438598000000001     
   1.7206904000000001       0.50438598000000001     
   1.7285352000000000       0.50438598000000001     
   1.7363681000000000       0.50438598000000001     
   1.7441891000000000       0.50438598000000001     
   1.7519982999999999       0.50438598000000001     
   1.7597955000000001       0.50438598000000001     
   1.7675809000000000       0.50438598000000001     
   1.7753544999999999       0.50438598000000001     
   1.7831162000000000       0.50438598000000001     
   1.7908660999999999       0.50438598000000001     
   1.7986042000000000       0.50438598000000001     
   1.8063305000000001       0.50438598000000001     
   1.8140451000000000       0.50438598000000001     
   1.8217478000000000       0.50438598000000001     
   1.8294389000000000       0.50438598000000001     
   1.8371181999999999       0.50438598000000001     
   1.8447857000000001       0.50438598000000001     
   1.8524415999999999       0.50438598000000001     
   1.8600857000000000       0.50438598000000001     
   1.8677182000000001       0.50438598000000001     
   1.8753390000000001       0.50438598000000001     
   1.8829482000000000       0.50438598000000001     
   1.8905457000000001       0.50438598000000001     
   1.8981315000000001       0.50438598000000001     
   1.9057058000000000       0.50438598000000001     
   1.9132684000000000       0.50438598000000001     
   1.9208194999999999       0.50438598000000001     
   1.9283589000000001       0.50438598000000001     
   1.9358868000000000       0.50438598000000001     
   1.9434031000000000       0.50438598000000001     
   1.9509079000000000       0.50438598000000001     
   1.9584012000000000       0.50438598000000001     
   1.9658830000000000       0.50438598000000001     
   1.9733532000000000       0.50438598000000001     
   1.9808120000000000       0.50438598000000001     
   1.9882593000000000       0.50438598000000001     
   1.9956951000000001       0.50438598000000001     
   2.0031194000000001       0.50438598000000001     
   2.0105324000000002       0.50438598000000001     
   2.0179338000000002       0.50438598000000001     
   2.0253239000000001       0.50438598000000001     
   2.0327025999999999       0.50438598000000001     
   2.0400699000000002       0.50438598000000001     
   2.0474258000000001       0.50438598000000001     
   2.0547704000000002       0.50438598000000001     
   2.0621035999999999       0.50438598000000001     
   2.0694254999999999       0.50438598000000001     
   2.0767359999999999       0.50438598000000001     
   2.0840352000000002       0.50438598000000001     
   2.0913232000000002       0.50438598000000001     
   2.0985998000000001       0.50438598000000001     
   2.1058652000000002       0.50438598000000001     
   2.1131193000000001       0.50438598000000001     
   2.1203620999999999       0.50438598000000001     
   2.1275938000000001       0.50438598000000001     
   2.1348142000000001       0.50438598000000001     
   2.1420233999999998       0.50438598000000001     
   2.1492214000000001       0.50438598000000001     
   2.1564082000000000       0.50438598000000001     
   2.1635838000000001       0.50438598000000001     
   2.1707483000000001       0.50438598000000001     
   2.1779016000000002       0.50438598000000001     
   2.1850437999999999       0.50438598000000001     
   2.1921748999999999       0.50438598000000001     
   2.1992948000000001       0.50438598000000001     
   2.2064037000000001       0.50438598000000001     
   2.2135014000000002       0.50438598000000001     
   2.2205881000000001       0.50438598000000001     
   2.2276638000000002       0.50438598000000001     
   2.2347283999999998       0.50438598000000001     
   2.2417818999999999       0.50438598000000001     
   2.2488244000000002       0.50438598000000001     
   2.2558560000000001       0.50438598000000001     
   2.2628765000000000       0.50438598000000001     
   2.2698860000000001       0.50438598000000001     
   2.2768845999999998       0.50438598000000001     
   2.2838721999999998       0.50438598000000001     
   2.2908488000000000       0.50438598000000001     
   2.2978144999999999       0.50438598000000001     
   2.3047692999999998       0.50438598000000001     
   2.3117131999999998       0.50438598000000001     
   2.3186461000000000       0.50438598000000001     
   2.3255682000000002       0.50438598000000001     
   2.3324794000000000       0.50438598000000001     
   2.3393798000000001       0.50438598000000001     
   2.3462692999999999       0.50438598000000001     
   2.3531479000000002       0.50438598000000001     
   2.3600156999999999       0.50438598000000001     
   2.3668727999999999       0.50438598000000001     
   2.3737189999999999       0.50438598000000001     
   2.3805543999999998       0.50438598000000001     
   2.3873790000000001       0.50438598000000001     
   2.3941929000000002       0.50438598000000001     
   2.4009960000000001       0.50438598000000001     
   2.4077883999999998       0.50438598000000001     
   2.4145699999999999       0.50438598000000001     
   2.4213410000000000       0.50438598000000001     
   2.4281012000000000       0.50438598000000001     
   2.4348507000000001       0.50438598000000001     
   2.4415895999999999       0.50438598000000001     
   2.4483177999999999       0.50438598000000001     
   2.4550353000000000       0.50438598000000001     
   2.4617422000000002       0.50438598000000001     
   2.4684384000000001       0.50438598000000001     
   2.4751240000000001       0.50438598000000001     
   2.4817990000000001       0.50438598000000001     
   2.4884634999999999       0.50438598000000001     
   2.4951173000000000       0.50438598000000001     
   2.5017605000000001       0.50438598000000001     
   2.5083932000000000       0.50438598000000001     
   2.5150153999999998       0.50438598000000001     
   2.5216270000000001       0.50438598000000001     
   2.5282281000000002       0.50438598000000001     
   2.5348185999999999       0.50438598000000001     
   2.5413986999999998       0.50438598000000001     
   2.5479683000000000       0.50438598000000001     
   2.5545274000000000       0.50438598000000001     
   2.5610759999999999       0.50438598000000001     
   2.5676142000000000       0.50438598000000001     
   2.5741418999999999       0.50438598000000001     
   2.5806591999999999       0.50438598000000001     
   2.5871661000000001       0.50438598000000001     
   2.5936626000000000       0.50438598000000001     
   2.6001487000000001       0.50438598000000001     
   2.6066243999999998       0.50438598000000001     
   2.6130897000000002       0.50438598000000001     
   2.6195447000000001       0.50438598000000001     
   2.6259893000000001       0.50438598000000001     
   2.6324234999999998       0.50438598000000001     
   2.6388474999999998       0.50438598000000001     
   2.6452610999999999       0.50438598000000001     
   2.6516644999999999       0.50438598000000001     
   2.6580575000000000       0.50438598000000001     
   2.6644402999999999       0.50438598000000001     
   2.6708128000000002       0.50438598000000001     
   2.6771750000000001       0.50438598000000001     
   2.6835271000000001       0.50438598000000001     
   2.6898688000000002       0.50438598000000001     
   2.6962003999999999       0.50438598000000001     
   2.7025217000000001       0.50438598000000001     
   2.7088329000000000       0.50438598000000001     
   2.7151337999999998       0.50438598000000001     
   2.7214246000000002       0.50438598000000001     
   2.7277051999999999       0.50438598000000001     
   2.7339756999999998       0.50438598000000001     
   2.7402359999999999       0.50438598000000001     
   2.7464862000000001       0.50438598000000001     
   2.7527263000000000       0.50438598000000001     
   2.7589562999999999       0.50438598000000001     
   2.7651762000000000       0.50438598000000001     
   2.7713860000000001       0.50438598000000001     
   2.7775856999999999       0.50438598000000001     
   2.7837754000000001       0.50438598000000001     
   2.7899550999999998       0.50438598000000001     
   2.7961247000000000       0.50438598000000001     
   2.8022841999999999       0.50438598000000001     
   2.8084338000000000       0.50438598000000001     
   2.8145733000000002       0.50438598000000001     
   2.8207029000000001       0.50438598000000001     
   2.8268225000000000       0.50438598000000001     
   2.8329320999999998       0.50438598000000001     
   2.8390317000000000       0.50438598000000001     
   2.8451214999999999       0.50438598000000001     
   2.8512012000000002       0.50438598000000001     
   2.8572711000000002       0.50438598000000001     
   2.8633310000000001       0.50438598000000001     
   2.8693811000000000       0.50438598000000001     
   2.8754211999999999       0.50438598000000001     
   2.8814514999999998       0.50438598000000001     
   2.8874719000000000       0.50438598000000001     
   2.8934825000000002       0.50438598000000001     
   2.8994832000000001       0.50438598000000001     
   2.9054741000000002       0.50438598000000001     
   2.9114551000000000       0.50438598000000001     
   2.9174264000000001       0.50438598000000001     
   2.9233878000000000       0.50438598000000001     
   2.9293395000000002       0.50438598000000001     
   2.9352814000000000       0.50438598000000001     
   2.9412134999999999       0.50438598000000001     