 TITLE = "GRIDBLO_BC0010"
 VARIABLES = "X","Y"
ZONE I=    67,J=   127  ,DATAPACKING=POINT
 -0.73684203999999998        4.4642859139999999E-003
 -0.73245607000000001        4.4642859139999999E-003
 -0.72807010999999999        4.4642859139999999E-003
 -0.72368414000000003        4.4642859139999999E-003
 -0.71929818000000001        4.4642859139999999E-003
 -0.71491221000000005        4.4642859139999999E-003
 -0.71052625000000003        4.4642859139999999E-003
 -0.70614027999999995        4.4642859139999999E-003
 -0.70175432000000004        4.4642859139999999E-003
 -0.69736836000000002        4.4642859139999999E-003
 -0.69298238999999995        4.4642859139999999E-003
 -0.68859643000000004        4.4642859139999999E-003
 -0.68421045999999996        4.4642859139999999E-003
 -0.67982450000000005        4.4642859139999999E-003
 -0.67543852999999998        4.4642859139999999E-003
 -0.67105256999999996        4.4642859139999999E-003
 -0.66666660000000000        4.4642859139999999E-003
 -0.66228063999999998        4.4642859139999999E-003
 -0.65789467000000001        4.4642859139999999E-003
 -0.65350870999999999        4.4642859139999999E-003
 -0.64912274000000003        4.4642859139999999E-003
 -0.64473678000000001        4.4642859139999999E-003
 -0.64035081000000005        4.4642859139999999E-003
 -0.63596485000000003        4.4642859139999999E-003
 -0.63157887999999995        4.4642859139999999E-003
 -0.62719292000000004        4.4642859139999999E-003
 -0.62280694999999997        4.4642859139999999E-003
 -0.61842098999999995        4.4642859139999999E-003
 -0.61403501999999999        4.4642859139999999E-003
 -0.60964905999999996        4.4642859139999999E-003
 -0.60526310000000005        4.4642859139999999E-003
 -0.60087712999999998        4.4642859139999999E-003
 -0.59649116999999996        4.4642859139999999E-003
 -0.59210520000000000        4.4642859139999999E-003
 -0.58771923999999998        4.4642859139999999E-003
 -0.58333327000000001        4.4642859139999999E-003
 -0.57894730999999999        4.4642859139999999E-003
 -0.57456134000000003        4.4642859139999999E-003
 -0.57017538000000001        4.4642859139999999E-003
 -0.56578941000000005        4.4642859139999999E-003
 -0.56140345000000003        4.4642859139999999E-003
 -0.55701747999999995        4.4642859139999999E-003
 -0.55263152000000004        4.4642859139999999E-003
 -0.54824554999999997        4.4642859139999999E-003
 -0.54385958999999995        4.4642859139999999E-003
 -0.53947361999999999        4.4642859139999999E-003
 -0.53508765999999996        4.4642859139999999E-003
 -0.53070169000000000        4.4642859139999999E-003
 -0.52631572999999998        4.4642859139999999E-003
 -0.52192976000000002        4.4642859139999999E-003
 -0.51754380000000000        4.4642859139999999E-003
 -0.51315783999999998        4.4642859139999999E-003
 -0.50877187000000001        4.4642859139999999E-003
 -0.50438590999999999        4.4642859139999999E-003
 -0.49999993999999998        4.4642859139999999E-003
 -0.49561398000000001        4.4642859139999999E-003
 -0.49122800999999999        4.4642859139999999E-003
 -0.48684205000000003        4.4642859139999999E-003
 -0.48245609000000000        4.4642859139999999E-003
 -0.47807011999999999        4.4642859139999999E-003
 -0.47368416000000002        4.4642859139999999E-003
 -0.46929819000000000        4.4642859139999999E-003
 -0.46491222999999998        4.4642859139999999E-003
 -0.46052627000000002        4.4642859139999999E-003
 -0.45614030000000000        4.4642859139999999E-003
 -0.45175433999999998        4.4642859139999999E-003
 -0.44736838000000001        4.4642859139999999E-003
 -0.73684203999999998        4.3859650000000003E-003
 -0.73245607000000001        4.3859650000000003E-003
 -0.72807010999999999        4.3859650000000003E-003
 -0.72368414000000003        4.3859650000000003E-003
 -0.71929818000000001        4.3859650000000003E-003
 -0.71491221000000005        4.3859650000000003E-003
 -0.71052625000000003        4.3859650000000003E-003
 -0.70614027999999995        4.3859650000000003E-003
 -0.70175432000000004        4.3859650000000003E-003
 -0.69736836000000002        4.3859650000000003E-003
 -0.69298238999999995        4.3859650000000003E-003
 -0.68859643000000004        4.3859650000000003E-003
 -0.68421045999999996        4.3859650000000003E-003
 -0.67982450000000005        4.3859650000000003E-003
 -0.67543852999999998        4.3859650000000003E-003
 -0.67105256999999996        4.3859650000000003E-003
 -0.66666660000000000        4.3859650000000003E-003
 -0.66228063999999998        4.3859650000000003E-003
 -0.65789467000000001        4.3859650000000003E-003
 -0.65350870999999999        4.3859650000000003E-003
 -0.64912274000000003        4.3859650000000003E-003
 -0.64473678000000001        4.3859650000000003E-003
 -0.64035081000000005        4.3859650000000003E-003
 -0.63596485000000003        4.3859650000000003E-003
 -0.63157887999999995        4.3859650000000003E-003
 -0.62719292000000004        4.3859650000000003E-003
 -0.62280694999999997        4.3859650000000003E-003
 -0.61842098999999995        4.3859650000000003E-003
 -0.61403501999999999        4.3859650000000003E-003
 -0.60964905999999996        4.3859650000000003E-003
 -0.60526310000000005        4.3859650000000003E-003
 -0.60087712999999998        4.3859650000000003E-003
 -0.59649116999999996        4.3859650000000003E-003
 -0.59210520000000000        4.3859650000000003E-003
 -0.58771923999999998        4.3859650000000003E-003
 -0.58333327000000001        4.3859650000000003E-003
 -0.57894730999999999        4.3859650000000003E-003
 -0.57456134000000003        4.3859650000000003E-003
 -0.57017538000000001        4.3859650000000003E-003
 -0.56578941000000005        4.3859650000000003E-003
 -0.56140345000000003        4.3859650000000003E-003
 -0.55701747999999995        4.3859650000000003E-003
 -0.55263152000000004        4.3859650000000003E-003
 -0.54824554999999997        4.3859650000000003E-003
 -0.54385958999999995        4.3859650000000003E-003
 -0.53947361999999999        4.3859650000000003E-003
 -0.53508765999999996        4.3859650000000003E-003
 -0.53070169000000000        4.3859650000000003E-003
 -0.52631572999999998        4.3859650000000003E-003
 -0.52192976000000002        4.3859650000000003E-003
 -0.51754380000000000        4.3859650000000003E-003
 -0.51315783999999998        4.3859650000000003E-003
 -0.50877187000000001        4.3859650000000003E-003
 -0.50438590999999999        4.3859650000000003E-003
 -0.49999993999999998        4.3859650000000003E-003
 -0.49561398000000001        4.3859650000000003E-003
 -0.49122800999999999        4.3859650000000003E-003
 -0.48684205000000003        4.3859650000000003E-003
 -0.48245609000000000        4.3859650000000003E-003
 -0.47807011999999999        4.3859650000000003E-003
 -0.47368416000000002        4.3859650000000003E-003
 -0.46929819000000000        4.3859650000000003E-003
 -0.46491222999999998        4.3859650000000003E-003
 -0.46052627000000002        4.3859650000000003E-003
 -0.45614030000000000        4.3859650000000003E-003
 -0.45175433999999998        4.3859650000000003E-003
 -0.44736838000000001        4.3859650000000003E-003
 -0.73684203999999998        8.7719301000000003E-003
 -0.73245607000000001        8.7719301000000003E-003
 -0.72807010999999999        8.7719301000000003E-003
 -0.72368414000000003        8.7719301000000003E-003
 -0.71929818000000001        8.7719301000000003E-003
 -0.71491221000000005        8.7719301000000003E-003
 -0.71052625000000003        8.7719301000000003E-003
 -0.70614027999999995        8.7719301000000003E-003
 -0.70175432000000004        8.7719301000000003E-003
 -0.69736836000000002        8.7719301000000003E-003
 -0.69298238999999995        8.7719301000000003E-003
 -0.68859643000000004        8.7719301000000003E-003
 -0.68421045999999996        8.7719301000000003E-003
 -0.67982450000000005        8.7719301000000003E-003
 -0.67543852999999998        8.7719301000000003E-003
 -0.67105256999999996        8.7719301000000003E-003
 -0.66666660000000000        8.7719301000000003E-003
 -0.66228063999999998        8.7719301000000003E-003
 -0.65789467000000001        8.7719301000000003E-003
 -0.65350870999999999        8.7719301000000003E-003
 -0.64912274000000003        8.7719301000000003E-003
 -0.64473678000000001        8.7719301000000003E-003
 -0.64035081000000005        8.7719301000000003E-003
 -0.63596485000000003        8.7719301000000003E-003
 -0.63157887999999995        8.7719301000000003E-003
 -0.62719292000000004        8.7719301000000003E-003
 -0.62280694999999997        8.7719301000000003E-003
 -0.61842098999999995        8.7719301000000003E-003
 -0.61403501999999999        8.7719301000000003E-003
 -0.60964905999999996        8.7719301000000003E-003
 -0.60526310000000005        8.7719301000000003E-003
 -0.60087712999999998        8.7719301000000003E-003
 -0.59649116999999996        8.7719301000000003E-003
 -0.59210520000000000        8.7719301000000003E-003
 -0.58771923999999998        8.7719301000000003E-003
 -0.58333327000000001        8.7719301000000003E-003
 -0.57894730999999999        8.7719301000000003E-003
 -0.57456134000000003        8.7719301000000003E-003
 -0.57017538000000001        8.7719301000000003E-003
 -0.56578941000000005        8.7719301000000003E-003
 -0.56140345000000003        8.7719301000000003E-003
 -0.55701747999999995        8.7719301000000003E-003
 -0.55263152000000004        8.7719301000000003E-003
 -0.54824554999999997        8.7719301000000003E-003
 -0.54385958999999995        8.7719301000000003E-003
 -0.53947361999999999        8.7719301000000003E-003
 -0.53508765999999996        8.7719301000000003E-003
 -0.53070169000000000        8.7719301000000003E-003
 -0.52631572999999998        8.7719301000000003E-003
 -0.52192976000000002        8.7719301000000003E-003
 -0.51754380000000000        8.7719301000000003E-003
 -0.51315783999999998        8.7719301000000003E-003
 -0.50877187000000001        8.7719301000000003E-003
 -0.50438590999999999        8.7719301000000003E-003
 -0.49999993999999998        8.7719301000000003E-003
 -0.49561398000000001        8.7719301000000003E-003
 -0.49122800999999999        8.7719301000000003E-003
 -0.48684205000000003        8.7719301000000003E-003
 -0.48245609000000000        8.7719301000000003E-003
 -0.47807011999999999        8.7719301000000003E-003
 -0.47368416000000002        8.7719301000000003E-003
 -0.46929819000000000        8.7719301000000003E-003
 -0.46491222999999998        8.7719301000000003E-003
 -0.46052627000000002        8.7719301000000003E-003
 -0.45614030000000000        8.7719301000000003E-003
 -0.45175433999999998        8.7719301000000003E-003
 -0.44736838000000001        8.7719301000000003E-003
 -0.73684203999999998        1.3157894999999999E-002
 -0.73245607000000001        1.3157894999999999E-002
 -0.72807010999999999        1.3157894999999999E-002
 -0.72368414000000003        1.3157894999999999E-002
 -0.71929818000000001        1.3157894999999999E-002
 -0.71491221000000005        1.3157894999999999E-002
 -0.71052625000000003        1.3157894999999999E-002
 -0.70614027999999995        1.3157894999999999E-002
 -0.70175432000000004        1.3157894999999999E-002
 -0.69736836000000002        1.3157894999999999E-002
 -0.69298238999999995        1.3157894999999999E-002
 -0.68859643000000004        1.3157894999999999E-002
 -0.68421045999999996        1.3157894999999999E-002
 -0.67982450000000005        1.3157894999999999E-002
 -0.67543852999999998        1.3157894999999999E-002
 -0.67105256999999996        1.3157894999999999E-002
 -0.66666660000000000        1.3157894999999999E-002
 -0.66228063999999998        1.3157894999999999E-002
 -0.65789467000000001        1.3157894999999999E-002
 -0.65350870999999999        1.3157894999999999E-002
 -0.64912274000000003        1.3157894999999999E-002
 -0.64473678000000001        1.3157894999999999E-002
 -0.64035081000000005        1.3157894999999999E-002
 -0.63596485000000003        1.3157894999999999E-002
 -0.63157887999999995        1.3157894999999999E-002
 -0.62719292000000004        1.3157894999999999E-002
 -0.62280694999999997        1.3157894999999999E-002
 -0.61842098999999995        1.3157894999999999E-002
 -0.61403501999999999        1.3157894999999999E-002
 -0.60964905999999996        1.3157894999999999E-002
 -0.60526310000000005        1.3157894999999999E-002
 -0.60087712999999998        1.3157894999999999E-002
 -0.59649116999999996        1.3157894999999999E-002
 -0.59210520000000000        1.3157894999999999E-002
 -0.58771923999999998        1.3157894999999999E-002
 -0.58333327000000001        1.3157894999999999E-002
 -0.57894730999999999        1.3157894999999999E-002
 -0.57456134000000003        1.3157894999999999E-002
 -0.57017538000000001        1.3157894999999999E-002
 -0.56578941000000005        1.3157894999999999E-002
 -0.56140345000000003        1.3157894999999999E-002
 -0.55701747999999995        1.3157894999999999E-002
 -0.55263152000000004        1.3157894999999999E-002
 -0.54824554999999997        1.3157894999999999E-002
 -0.54385958999999995        1.3157894999999999E-002
 -0.53947361999999999        1.3157894999999999E-002
 -0.53508765999999996        1.3157894999999999E-002
 -0.53070169000000000        1.3157894999999999E-002
 -0.52631572999999998        1.3157894999999999E-002
 -0.52192976000000002        1.3157894999999999E-002
 -0.51754380000000000        1.3157894999999999E-002
 -0.51315783999999998        1.3157894999999999E-002
 -0.50877187000000001        1.3157894999999999E-002
 -0.50438590999999999        1.3157894999999999E-002
 -0.49999993999999998        1.3157894999999999E-002
 -0.49561398000000001        1.3157894999999999E-002
 -0.49122800999999999        1.3157894999999999E-002
 -0.48684205000000003        1.3157894999999999E-002
 -0.48245609000000000        1.3157894999999999E-002
 -0.47807011999999999        1.3157894999999999E-002
 -0.47368416000000002        1.3157894999999999E-002
 -0.46929819000000000        1.3157894999999999E-002
 -0.46491222999999998        1.3157894999999999E-002
 -0.46052627000000002        1.3157894999999999E-002
 -0.45614030000000000        1.3157894999999999E-002
 -0.45175433999999998        1.3157894999999999E-002
 -0.44736838000000001        1.3157894999999999E-002
 -0.73684203999999998        1.7543860000000001E-002
 -0.73245607000000001        1.7543860000000001E-002
 -0.72807010999999999        1.7543860000000001E-002
 -0.72368414000000003        1.7543860000000001E-002
 -0.71929818000000001        1.7543860000000001E-002
 -0.71491221000000005        1.7543860000000001E-002
 -0.71052625000000003        1.7543860000000001E-002
 -0.70614027999999995        1.7543860000000001E-002
 -0.70175432000000004        1.7543860000000001E-002
 -0.69736836000000002        1.7543860000000001E-002
 -0.69298238999999995        1.7543860000000001E-002
 -0.68859643000000004        1.7543860000000001E-002
 -0.68421045999999996        1.7543860000000001E-002
 -0.67982450000000005        1.7543860000000001E-002
 -0.67543852999999998        1.7543860000000001E-002
 -0.67105256999999996        1.7543860000000001E-002
 -0.66666660000000000        1.7543860000000001E-002
 -0.66228063999999998        1.7543860000000001E-002
 -0.65789467000000001        1.7543860000000001E-002
 -0.65350870999999999        1.7543860000000001E-002
 -0.64912274000000003        1.7543860000000001E-002
 -0.64473678000000001        1.7543860000000001E-002
 -0.64035081000000005        1.7543860000000001E-002
 -0.63596485000000003        1.7543860000000001E-002
 -0.63157887999999995        1.7543860000000001E-002
 -0.62719292000000004        1.7543860000000001E-002
 -0.62280694999999997        1.7543860000000001E-002
 -0.61842098999999995        1.7543860000000001E-002
 -0.61403501999999999        1.7543860000000001E-002
 -0.60964905999999996        1.7543860000000001E-002
 -0.60526310000000005        1.7543860000000001E-002
 -0.60087712999999998        1.7543860000000001E-002
 -0.59649116999999996        1.7543860000000001E-002
 -0.59210520000000000        1.7543860000000001E-002
 -0.58771923999999998        1.7543860000000001E-002
 -0.58333327000000001        1.7543860000000001E-002
 -0.57894730999999999        1.7543860000000001E-002
 -0.57456134000000003        1.7543860000000001E-002
 -0.57017538000000001        1.7543860000000001E-002
 -0.56578941000000005        1.7543860000000001E-002
 -0.56140345000000003        1.7543860000000001E-002
 -0.55701747999999995        1.7543860000000001E-002
 -0.55263152000000004        1.7543860000000001E-002
 -0.54824554999999997        1.7543860000000001E-002
 -0.54385958999999995        1.7543860000000001E-002
 -0.53947361999999999        1.7543860000000001E-002
 -0.53508765999999996        1.7543860000000001E-002
 -0.53070169000000000        1.7543860000000001E-002
 -0.52631572999999998        1.7543860000000001E-002
 -0.52192976000000002        1.7543860000000001E-002
 -0.51754380000000000        1.7543860000000001E-002
 -0.51315783999999998        1.7543860000000001E-002
 -0.50877187000000001        1.7543860000000001E-002
 -0.50438590999999999        1.7543860000000001E-002
 -0.49999993999999998        1.7543860000000001E-002
 -0.49561398000000001        1.7543860000000001E-002
 -0.49122800999999999        1.7543860000000001E-002
 -0.48684205000000003        1.7543860000000001E-002
 -0.48245609000000000        1.7543860000000001E-002
 -0.47807011999999999        1.7543860000000001E-002
 -0.47368416000000002        1.7543860000000001E-002
 -0.46929819000000000        1.7543860000000001E-002
 -0.46491222999999998        1.7543860000000001E-002
 -0.46052627000000002        1.7543860000000001E-002
 -0.45614030000000000        1.7543860000000001E-002
 -0.45175433999999998        1.7543860000000001E-002
 -0.44736838000000001        1.7543860000000001E-002
 -0.73684203999999998        2.1929825000000000E-002
 -0.73245607000000001        2.1929825000000000E-002
 -0.72807010999999999        2.1929825000000000E-002
 -0.72368414000000003        2.1929825000000000E-002
 -0.71929818000000001        2.1929825000000000E-002
 -0.71491221000000005        2.1929825000000000E-002
 -0.71052625000000003        2.1929825000000000E-002
 -0.70614027999999995        2.1929825000000000E-002
 -0.70175432000000004        2.1929825000000000E-002
 -0.69736836000000002        2.1929825000000000E-002
 -0.69298238999999995        2.1929825000000000E-002
 -0.68859643000000004        2.1929825000000000E-002
 -0.68421045999999996        2.1929825000000000E-002
 -0.67982450000000005        2.1929825000000000E-002
 -0.67543852999999998        2.1929825000000000E-002
 -0.67105256999999996        2.1929825000000000E-002
 -0.66666660000000000        2.1929825000000000E-002
 -0.66228063999999998        2.1929825000000000E-002
 -0.65789467000000001        2.1929825000000000E-002
 -0.65350870999999999        2.1929825000000000E-002
 -0.64912274000000003        2.1929825000000000E-002
 -0.64473678000000001        2.1929825000000000E-002
 -0.64035081000000005        2.1929825000000000E-002
 -0.63596485000000003        2.1929825000000000E-002
 -0.63157887999999995        2.1929825000000000E-002
 -0.62719292000000004        2.1929825000000000E-002
 -0.62280694999999997        2.1929825000000000E-002
 -0.61842098999999995        2.1929825000000000E-002
 -0.61403501999999999        2.1929825000000000E-002
 -0.60964905999999996        2.1929825000000000E-002
 -0.60526310000000005        2.1929825000000000E-002
 -0.60087712999999998        2.1929825000000000E-002
 -0.59649116999999996        2.1929825000000000E-002
 -0.59210520000000000        2.1929825000000000E-002
 -0.58771923999999998        2.1929825000000000E-002
 -0.58333327000000001        2.1929825000000000E-002
 -0.57894730999999999        2.1929825000000000E-002
 -0.57456134000000003        2.1929825000000000E-002
 -0.57017538000000001        2.1929825000000000E-002
 -0.56578941000000005        2.1929825000000000E-002
 -0.56140345000000003        2.1929825000000000E-002
 -0.55701747999999995        2.1929825000000000E-002
 -0.55263152000000004        2.1929825000000000E-002
 -0.54824554999999997        2.1929825000000000E-002
 -0.54385958999999995        2.1929825000000000E-002
 -0.53947361999999999        2.1929825000000000E-002
 -0.53508765999999996        2.1929825000000000E-002
 -0.53070169000000000        2.1929825000000000E-002
 -0.52631572999999998        2.1929825000000000E-002
 -0.52192976000000002        2.1929825000000000E-002
 -0.51754380000000000        2.1929825000000000E-002
 -0.51315783999999998        2.1929825000000000E-002
 -0.50877187000000001        2.1929825000000000E-002
 -0.50438590999999999        2.1929825000000000E-002
 -0.49999993999999998        2.1929825000000000E-002
 -0.49561398000000001        2.1929825000000000E-002
 -0.49122800999999999        2.1929825000000000E-002
 -0.48684205000000003        2.1929825000000000E-002
 -0.48245609000000000        2.1929825000000000E-002
 -0.47807011999999999        2.1929825000000000E-002
 -0.47368416000000002        2.1929825000000000E-002
 -0.46929819000000000        2.1929825000000000E-002
 -0.46491222999999998        2.1929825000000000E-002
 -0.46052627000000002        2.1929825000000000E-002
 -0.45614030000000000        2.1929825000000000E-002
 -0.45175433999999998        2.1929825000000000E-002
 -0.44736838000000001        2.1929825000000000E-002
 -0.73684203999999998        2.6315789999999999E-002
 -0.73245607000000001        2.6315789999999999E-002
 -0.72807010999999999        2.6315789999999999E-002
 -0.72368414000000003        2.6315789999999999E-002
 -0.71929818000000001        2.6315789999999999E-002
 -0.71491221000000005        2.6315789999999999E-002
 -0.71052625000000003        2.6315789999999999E-002
 -0.70614027999999995        2.6315789999999999E-002
 -0.70175432000000004        2.6315789999999999E-002
 -0.69736836000000002        2.6315789999999999E-002
 -0.69298238999999995        2.6315789999999999E-002
 -0.68859643000000004        2.6315789999999999E-002
 -0.68421045999999996        2.6315789999999999E-002
 -0.67982450000000005        2.6315789999999999E-002
 -0.67543852999999998        2.6315789999999999E-002
 -0.67105256999999996        2.6315789999999999E-002
 -0.66666660000000000        2.6315789999999999E-002
 -0.66228063999999998        2.6315789999999999E-002
 -0.65789467000000001        2.6315789999999999E-002
 -0.65350870999999999        2.6315789999999999E-002
 -0.64912274000000003        2.6315789999999999E-002
 -0.64473678000000001        2.6315789999999999E-002
 -0.64035081000000005        2.6315789999999999E-002
 -0.63596485000000003        2.6315789999999999E-002
 -0.63157887999999995        2.6315789999999999E-002
 -0.62719292000000004        2.6315789999999999E-002
 -0.62280694999999997        2.6315789999999999E-002
 -0.61842098999999995        2.6315789999999999E-002
 -0.61403501999999999        2.6315789999999999E-002
 -0.60964905999999996        2.6315789999999999E-002
 -0.60526310000000005        2.6315789999999999E-002
 -0.60087712999999998        2.6315789999999999E-002
 -0.59649116999999996        2.6315789999999999E-002
 -0.59210520000000000        2.6315789999999999E-002
 -0.58771923999999998        2.6315789999999999E-002
 -0.58333327000000001        2.6315789999999999E-002
 -0.57894730999999999        2.6315789999999999E-002
 -0.57456134000000003        2.6315789999999999E-002
 -0.57017538000000001        2.6315789999999999E-002
 -0.56578941000000005        2.6315789999999999E-002
 -0.56140345000000003        2.6315789999999999E-002
 -0.55701747999999995        2.6315789999999999E-002
 -0.55263152000000004        2.6315789999999999E-002
 -0.54824554999999997        2.6315789999999999E-002
 -0.54385958999999995        2.6315789999999999E-002
 -0.53947361999999999        2.6315789999999999E-002
 -0.53508765999999996        2.6315789999999999E-002
 -0.53070169000000000        2.6315789999999999E-002
 -0.52631572999999998        2.6315789999999999E-002
 -0.52192976000000002        2.6315789999999999E-002
 -0.51754380000000000        2.6315789999999999E-002
 -0.51315783999999998        2.6315789999999999E-002
 -0.50877187000000001        2.6315789999999999E-002
 -0.50438590999999999        2.6315789999999999E-002
 -0.49999993999999998        2.6315789999999999E-002
 -0.49561398000000001        2.6315789999999999E-002
 -0.49122800999999999        2.6315789999999999E-002
 -0.48684205000000003        2.6315789999999999E-002
 -0.48245609000000000        2.6315789999999999E-002
 -0.47807011999999999        2.6315789999999999E-002
 -0.47368416000000002        2.6315789999999999E-002
 -0.46929819000000000        2.6315789999999999E-002
 -0.46491222999999998        2.6315789999999999E-002
 -0.46052627000000002        2.6315789999999999E-002
 -0.45614030000000000        2.6315789999999999E-002
 -0.45175433999999998        2.6315789999999999E-002
 -0.44736838000000001        2.6315789999999999E-002
 -0.73684203999999998        3.0701755000000001E-002
 -0.73245607000000001        3.0701755000000001E-002
 -0.72807010999999999        3.0701755000000001E-002
 -0.72368414000000003        3.0701755000000001E-002
 -0.71929818000000001        3.0701755000000001E-002
 -0.71491221000000005        3.0701755000000001E-002
 -0.71052625000000003        3.0701755000000001E-002
 -0.70614027999999995        3.0701755000000001E-002
 -0.70175432000000004        3.0701755000000001E-002
 -0.69736836000000002        3.0701755000000001E-002
 -0.69298238999999995        3.0701755000000001E-002
 -0.68859643000000004        3.0701755000000001E-002
 -0.68421045999999996        3.0701755000000001E-002
 -0.67982450000000005        3.0701755000000001E-002
 -0.67543852999999998        3.0701755000000001E-002
 -0.67105256999999996        3.0701755000000001E-002
 -0.66666660000000000        3.0701755000000001E-002
 -0.66228063999999998        3.0701755000000001E-002
 -0.65789467000000001        3.0701755000000001E-002
 -0.65350870999999999        3.0701755000000001E-002
 -0.64912274000000003        3.0701755000000001E-002
 -0.64473678000000001        3.0701755000000001E-002
 -0.64035081000000005        3.0701755000000001E-002
 -0.63596485000000003        3.0701755000000001E-002
 -0.63157887999999995        3.0701755000000001E-002
 -0.62719292000000004        3.0701755000000001E-002
 -0.62280694999999997        3.0701755000000001E-002
 -0.61842098999999995        3.0701755000000001E-002
 -0.61403501999999999        3.0701755000000001E-002
 -0.60964905999999996        3.0701755000000001E-002
 -0.60526310000000005        3.0701755000000001E-002
 -0.60087712999999998        3.0701755000000001E-002
 -0.59649116999999996        3.0701755000000001E-002
 -0.59210520000000000        3.0701755000000001E-002
 -0.58771923999999998        3.0701755000000001E-002
 -0.58333327000000001        3.0701755000000001E-002
 -0.57894730999999999        3.0701755000000001E-002
 -0.57456134000000003        3.0701755000000001E-002
 -0.57017538000000001        3.0701755000000001E-002
 -0.56578941000000005        3.0701755000000001E-002
 -0.56140345000000003        3.0701755000000001E-002
 -0.55701747999999995        3.0701755000000001E-002
 -0.55263152000000004        3.0701755000000001E-002
 -0.54824554999999997        3.0701755000000001E-002
 -0.54385958999999995        3.0701755000000001E-002
 -0.53947361999999999        3.0701755000000001E-002
 -0.53508765999999996        3.0701755000000001E-002
 -0.53070169000000000        3.0701755000000001E-002
 -0.52631572999999998        3.0701755000000001E-002
 -0.52192976000000002        3.0701755000000001E-002
 -0.51754380000000000        3.0701755000000001E-002
 -0.51315783999999998        3.0701755000000001E-002
 -0.50877187000000001        3.0701755000000001E-002
 -0.50438590999999999        3.0701755000000001E-002
 -0.49999993999999998        3.0701755000000001E-002
 -0.49561398000000001        3.0701755000000001E-002
 -0.49122800999999999        3.0701755000000001E-002
 -0.48684205000000003        3.0701755000000001E-002
 -0.48245609000000000        3.0701755000000001E-002
 -0.47807011999999999        3.0701755000000001E-002
 -0.47368416000000002        3.0701755000000001E-002
 -0.46929819000000000        3.0701755000000001E-002
 -0.46491222999999998        3.0701755000000001E-002
 -0.46052627000000002        3.0701755000000001E-002
 -0.45614030000000000        3.0701755000000001E-002
 -0.45175433999999998        3.0701755000000001E-002
 -0.44736838000000001        3.0701755000000001E-002
 -0.73684203999999998        3.5087720000000003E-002
 -0.73245607000000001        3.5087720000000003E-002
 -0.72807010999999999        3.5087720000000003E-002
 -0.72368414000000003        3.5087720000000003E-002
 -0.71929818000000001        3.5087720000000003E-002
 -0.71491221000000005        3.5087720000000003E-002
 -0.71052625000000003        3.5087720000000003E-002
 -0.70614027999999995        3.5087720000000003E-002
 -0.70175432000000004        3.5087720000000003E-002
 -0.69736836000000002        3.5087720000000003E-002
 -0.69298238999999995        3.5087720000000003E-002
 -0.68859643000000004        3.5087720000000003E-002
 -0.68421045999999996        3.5087720000000003E-002
 -0.67982450000000005        3.5087720000000003E-002
 -0.67543852999999998        3.5087720000000003E-002
 -0.67105256999999996        3.5087720000000003E-002
 -0.66666660000000000        3.5087720000000003E-002
 -0.66228063999999998        3.5087720000000003E-002
 -0.65789467000000001        3.5087720000000003E-002
 -0.65350870999999999        3.5087720000000003E-002
 -0.64912274000000003        3.5087720000000003E-002
 -0.64473678000000001        3.5087720000000003E-002
 -0.64035081000000005        3.5087720000000003E-002
 -0.63596485000000003        3.5087720000000003E-002
 -0.63157887999999995        3.5087720000000003E-002
 -0.62719292000000004        3.5087720000000003E-002
 -0.62280694999999997        3.5087720000000003E-002
 -0.61842098999999995        3.5087720000000003E-002