 TITLE = "GRIDBLO_BC0031"
 VARIABLES = "X","Y"
ZONE I=   127,J=   275  ,DATAPACKING=POINT
  0.49999988000000001        1.0000000000000000     
  0.50438585000000002        1.0000000000000000     
  0.50877181000000005        1.0000000000000000     
  0.51315778000000001        1.0000000000000000     
  0.51754374000000003        1.0000000000000000     
  0.52192970999999999        1.0000000000000000     
  0.52631567000000001        1.0000000000000000     
  0.53070163999999997        1.0000000000000000     
  0.53508760000000000        1.0000000000000000     
  0.53947356999999996        1.0000000000000000     
  0.54385952999999998        1.0000000000000000     
  0.54824550000000005        1.0000000000000000     
  0.55263145999999996        1.0000000000000000     
  0.55701743000000004        1.0000000000000000     
  0.56140338999999995        1.0000000000000000     
  0.56578936000000002        1.0000000000000000     
  0.57017532000000004        1.0000000000000000     
  0.57456129000000000        1.0000000000000000     
  0.57894725000000002        1.0000000000000000     
  0.58333321999999999        1.0000000000000000     
  0.58771918000000001        1.0000000000000000     
  0.59210514999999997        1.0000000000000000     
  0.59649110999999999        1.0000000000000000     
  0.60087707999999995        1.0000000000000000     
  0.60526305000000002        1.0000000000000000     
  0.60964901000000005        1.0000000000000000     
  0.61403498000000001        1.0000000000000000     
  0.61842094000000003        1.0000000000000000     
  0.62280690999999999        1.0000000000000000     
  0.62719287000000001        1.0000000000000000     
  0.63157883999999997        1.0000000000000000     
  0.63596480000000000        1.0000000000000000     
  0.64035076999999996        1.0000000000000000     
  0.64473672999999998        1.0000000000000000     
  0.64912270000000005        1.0000000000000000     
  0.65350865999999996        1.0000000000000000     
  0.65789463000000004        1.0000000000000000     
  0.66228058999999995        1.0000000000000000     
  0.66666656000000002        1.0000000000000000     
  0.67105252000000004        1.0000000000000000     
  0.67543849000000000        1.0000000000000000     
  0.67982445000000002        1.0000000000000000     
  0.68421041999999999        1.0000000000000000     
  0.68859638000000001        1.0000000000000000     
  0.69298234999999997        1.0000000000000000     
  0.69736830999999999        1.0000000000000000     
  0.70175427999999995        1.0000000000000000     
  0.70614023999999997        1.0000000000000000     
  0.71052621000000005        1.0000000000000000     
  0.71491216999999996        1.0000000000000000     
  0.71929814000000003        1.0000000000000000     
  0.72368410999999999        1.0000000000000000     
  0.72807007000000001        1.0000000000000000     
  0.73245603999999997        1.0000000000000000     
  0.73684200000000000        1.0000000000000000     
  0.74122796999999996        1.0000000000000000     
  0.74561392999999998        1.0000000000000000     
  0.74999990000000005        1.0000000000000000     
  0.75438585999999996        1.0000000000000000     
  0.75877183000000004        1.0000000000000000     
  0.76315778999999995        1.0000000000000000     
  0.76754376000000002        1.0000000000000000     
  0.77192972000000004        1.0000000000000000     
  0.77631569000000000        1.0000000000000000     
  0.78070165000000002        1.0000000000000000     
  0.78508761999999999        1.0000000000000000     
  0.78947358000000001        1.0000000000000000     
  0.79385954999999997        1.0000000000000000     
  0.79824550999999999        1.0000000000000000     
  0.80263147999999995        1.0000000000000000     
  0.80701743999999997        1.0000000000000000     
  0.81140341000000005        1.0000000000000000     
  0.81578936999999996        1.0000000000000000     
  0.82017534000000003        1.0000000000000000     
  0.82456130000000005        1.0000000000000000     
  0.82894727000000001        1.0000000000000000     
  0.83333323999999998        1.0000000000000000     
  0.83771920000000000        1.0000000000000000     
  0.84210516999999996        1.0000000000000000     
  0.84649112999999998        1.0000000000000000     
  0.85087710000000005        1.0000000000000000     
  0.85526305999999996        1.0000000000000000     
  0.85964903000000004        1.0000000000000000     
  0.86403498999999995        1.0000000000000000     
  0.86842096000000002        1.0000000000000000     
  0.87280692000000004        1.0000000000000000     
  0.87719289000000000        1.0000000000000000     
  0.88157885000000002        1.0000000000000000     
  0.88596481999999999        1.0000000000000000     
  0.89035078000000001        1.0000000000000000     
  0.89473674999999997        1.0000000000000000     
  0.89912270999999999        1.0000000000000000     
  0.90350867999999995        1.0000000000000000     
  0.90789463999999998        1.0000000000000000     
  0.91228061000000005        1.0000000000000000     
  0.91666656999999996        1.0000000000000000     
  0.92105254000000003        1.0000000000000000     
  0.92543850000000005        1.0000000000000000     
  0.92982447000000001        1.0000000000000000     
  0.93421043000000004        1.0000000000000000     
  0.93859640000000000        1.0000000000000000     
  0.94298236000000002        1.0000000000000000     
  0.94736832999999998        1.0000000000000000     
  0.95175430000000005        1.0000000000000000     
  0.95614025999999996        1.0000000000000000     
  0.96052623000000004        1.0000000000000000     
  0.96491218999999995        1.0000000000000000     
  0.96929816000000002        1.0000000000000000     
  0.97368412000000004        1.0000000000000000     
  0.97807009000000000        1.0000000000000000     
  0.98245605000000003        1.0000000000000000     
  0.98684201999999999        1.0000000000000000     
  0.99122798000000001        1.0000000000000000     
  0.99561394999999997        1.0000000000000000     
  0.99999990999999999        1.0000000000000000     
   1.0089199000000000        1.0000000000000000     
   1.0178267999999999        1.0000000000000000     
   1.0267206000000000        1.0000000000000000     
   1.0356014000000000        1.0000000000000000     
   1.0444690999999999        1.0000000000000000     
   1.0533237000000000        1.0000000000000000     
   1.0621653000000000        1.0000000000000000     
   1.0709940000000000        1.0000000000000000     
   1.0798095999999999        1.0000000000000000     
   1.0886122000000000        1.0000000000000000     
   1.0974018999999999        1.0000000000000000     
   1.1061786000000000        1.0000000000000000     
  0.49999988000000001        1.0089200000000000     
  0.50438585000000002        1.0089200000000000     
  0.50877181000000005        1.0089200000000000     
  0.51315778000000001        1.0089200000000000     
  0.51754374000000003        1.0089200000000000     
  0.52192970999999999        1.0089200000000000     
  0.52631567000000001        1.0089200000000000     
  0.53070163999999997        1.0089200000000000     
  0.53508760000000000        1.0089200000000000     
  0.53947356999999996        1.0089200000000000     
  0.54385952999999998        1.0089200000000000     
  0.54824550000000005        1.0089200000000000     
  0.55263145999999996        1.0089200000000000     
  0.55701743000000004        1.0089200000000000     
  0.56140338999999995        1.0089200000000000     
  0.56578936000000002        1.0089200000000000     
  0.57017532000000004        1.0089200000000000     
  0.57456129000000000        1.0089200000000000     
  0.57894725000000002        1.0089200000000000     
  0.58333321999999999        1.0089200000000000     
  0.58771918000000001        1.0089200000000000     
  0.59210514999999997        1.0089200000000000     
  0.59649110999999999        1.0089200000000000     
  0.60087707999999995        1.0089200000000000     
  0.60526305000000002        1.0089200000000000     
  0.60964901000000005        1.0089200000000000     
  0.61403498000000001        1.0089200000000000     
  0.61842094000000003        1.0089200000000000     
  0.62280690999999999        1.0089200000000000     
  0.62719287000000001        1.0089200000000000     
  0.63157883999999997        1.0089200000000000     
  0.63596480000000000        1.0089200000000000     
  0.64035076999999996        1.0089200000000000     
  0.64473672999999998        1.0089200000000000     
  0.64912270000000005        1.0089200000000000     
  0.65350865999999996        1.0089200000000000     
  0.65789463000000004        1.0089200000000000     
  0.66228058999999995        1.0089200000000000     
  0.66666656000000002        1.0089200000000000     
  0.67105252000000004        1.0089200000000000     
  0.67543849000000000        1.0089200000000000     
  0.67982445000000002        1.0089200000000000     
  0.68421041999999999        1.0089200000000000     
  0.68859638000000001        1.0089200000000000     
  0.69298234999999997        1.0089200000000000     
  0.69736830999999999        1.0089200000000000     
  0.70175427999999995        1.0089200000000000     
  0.70614023999999997        1.0089200000000000     
  0.71052621000000005        1.0089200000000000     
  0.71491216999999996        1.0089200000000000     
  0.71929814000000003        1.0089200000000000     
  0.72368410999999999        1.0089200000000000     
  0.72807007000000001        1.0089200000000000     
  0.73245603999999997        1.0089200000000000     
  0.73684200000000000        1.0089200000000000     
  0.74122796999999996        1.0089200000000000     
  0.74561392999999998        1.0089200000000000     
  0.74999990000000005        1.0089200000000000     
  0.75438585999999996        1.0089200000000000     
  0.75877183000000004        1.0089200000000000     
  0.76315778999999995        1.0089200000000000     
  0.76754376000000002        1.0089200000000000     
  0.77192972000000004        1.0089200000000000     
  0.77631569000000000        1.0089200000000000     
  0.78070165000000002        1.0089200000000000     
  0.78508761999999999        1.0089200000000000     
  0.78947358000000001        1.0089200000000000     
  0.79385954999999997        1.0089200000000000     
  0.79824550999999999        1.0089200000000000     
  0.80263147999999995        1.0089200000000000     
  0.80701743999999997        1.0089200000000000     
  0.81140341000000005        1.0089200000000000     
  0.81578936999999996        1.0089200000000000     
  0.82017534000000003        1.0089200000000000     
  0.82456130000000005        1.0089200000000000     
  0.82894727000000001        1.0089200000000000     
  0.83333323999999998        1.0089200000000000     
  0.83771920000000000        1.0089200000000000     
  0.84210516999999996        1.0089200000000000     
  0.84649112999999998        1.0089200000000000     
  0.85087710000000005        1.0089200000000000     
  0.85526305999999996        1.0089200000000000     
  0.85964903000000004        1.0089200000000000     
  0.86403498999999995        1.0089200000000000     
  0.86842096000000002        1.0089200000000000     
  0.87280692000000004        1.0089200000000000     
  0.87719289000000000        1.0089200000000000     
  0.88157885000000002        1.0089200000000000     
  0.88596481999999999        1.0089200000000000     
  0.89035078000000001        1.0089200000000000     
  0.89473674999999997        1.0089200000000000     
  0.89912270999999999        1.0089200000000000     
  0.90350867999999995        1.0089200000000000     
  0.90789463999999998        1.0089200000000000     
  0.91228061000000005        1.0089200000000000     
  0.91666656999999996        1.0089200000000000     
  0.92105254000000003        1.0089200000000000     
  0.92543850000000005        1.0089200000000000     
  0.92982447000000001        1.0089200000000000     
  0.93421043000000004        1.0089200000000000     
  0.93859640000000000        1.0089200000000000     
  0.94298236000000002        1.0089200000000000     
  0.94736832999999998        1.0089200000000000     
  0.95175430000000005        1.0089200000000000     
  0.95614025999999996        1.0089200000000000     
  0.96052623000000004        1.0089200000000000     
  0.96491218999999995        1.0089200000000000     
  0.96929816000000002        1.0089200000000000     
  0.97368412000000004        1.0089200000000000     
  0.97807009000000000        1.0089200000000000     
  0.98245605000000003        1.0089200000000000     
  0.98684201999999999        1.0089200000000000     
  0.99122798000000001        1.0089200000000000     
  0.99561394999999997        1.0089200000000000     
  0.99999990999999999        1.0089200000000000     
   1.0089199000000000        1.0089200000000000     
   1.0178267999999999        1.0089200000000000     
   1.0267206000000000        1.0089200000000000     
   1.0356014000000000        1.0089200000000000     
   1.0444690999999999        1.0089200000000000     
   1.0533237000000000        1.0089200000000000     
   1.0621653000000000        1.0089200000000000     
   1.0709940000000000        1.0089200000000000     
   1.0798095999999999        1.0089200000000000     
   1.0886122000000000        1.0089200000000000     
   1.0974018999999999        1.0089200000000000     
   1.1061786000000000        1.0089200000000000     
  0.49999988000000001        1.0178269000000000     
  0.50438585000000002        1.0178269000000000     
  0.50877181000000005        1.0178269000000000     
  0.51315778000000001        1.0178269000000000     
  0.51754374000000003        1.0178269000000000     
  0.52192970999999999        1.0178269000000000     
  0.52631567000000001        1.0178269000000000     
  0.53070163999999997        1.0178269000000000     
  0.53508760000000000        1.0178269000000000     
  0.53947356999999996        1.0178269000000000     
  0.54385952999999998        1.0178269000000000     
  0.54824550000000005        1.0178269000000000     
  0.55263145999999996        1.0178269000000000     
  0.55701743000000004        1.0178269000000000     
  0.56140338999999995        1.0178269000000000     
  0.56578936000000002        1.0178269000000000     
  0.57017532000000004        1.0178269000000000     
  0.57456129000000000        1.0178269000000000     
  0.57894725000000002        1.0178269000000000     
  0.58333321999999999        1.0178269000000000     
  0.58771918000000001        1.0178269000000000     
  0.59210514999999997        1.0178269000000000     
  0.59649110999999999        1.0178269000000000     
  0.60087707999999995        1.0178269000000000     
  0.60526305000000002        1.0178269000000000     
  0.60964901000000005        1.0178269000000000     
  0.61403498000000001        1.0178269000000000     
  0.61842094000000003        1.0178269000000000     
  0.62280690999999999        1.0178269000000000     
  0.62719287000000001        1.0178269000000000     
  0.63157883999999997        1.0178269000000000     
  0.63596480000000000        1.0178269000000000     
  0.64035076999999996        1.0178269000000000     
  0.64473672999999998        1.0178269000000000     
  0.64912270000000005        1.0178269000000000     
  0.65350865999999996        1.0178269000000000     
  0.65789463000000004        1.0178269000000000     
  0.66228058999999995        1.0178269000000000     
  0.66666656000000002        1.0178269000000000     
  0.67105252000000004        1.0178269000000000     
  0.67543849000000000        1.0178269000000000     
  0.67982445000000002        1.0178269000000000     
  0.68421041999999999        1.0178269000000000     
  0.68859638000000001        1.0178269000000000     
  0.69298234999999997        1.0178269000000000     
  0.69736830999999999        1.0178269000000000     
  0.70175427999999995        1.0178269000000000     
  0.70614023999999997        1.0178269000000000     
  0.71052621000000005        1.0178269000000000     
  0.71491216999999996        1.0178269000000000     
  0.71929814000000003        1.0178269000000000     
  0.72368410999999999        1.0178269000000000     
  0.72807007000000001        1.0178269000000000     
  0.73245603999999997        1.0178269000000000     
  0.73684200000000000        1.0178269000000000     
  0.74122796999999996        1.0178269000000000     
  0.74561392999999998        1.0178269000000000     
  0.74999990000000005        1.0178269000000000     
  0.75438585999999996        1.0178269000000000     
  0.75877183000000004        1.0178269000000000     
  0.76315778999999995        1.0178269000000000     
  0.76754376000000002        1.0178269000000000     
  0.77192972000000004        1.0178269000000000     
  0.77631569000000000        1.0178269000000000     
  0.78070165000000002        1.0178269000000000     
  0.78508761999999999        1.0178269000000000     
  0.78947358000000001        1.0178269000000000     
  0.79385954999999997        1.0178269000000000     
  0.79824550999999999        1.0178269000000000     
  0.80263147999999995        1.0178269000000000     
  0.80701743999999997        1.0178269000000000     
  0.81140341000000005        1.0178269000000000     
  0.81578936999999996        1.0178269000000000     
  0.82017534000000003        1.0178269000000000     
  0.82456130000000005        1.0178269000000000     
  0.82894727000000001        1.0178269000000000     
  0.83333323999999998        1.0178269000000000     
  0.83771920000000000        1.0178269000000000     
  0.84210516999999996        1.0178269000000000     
  0.84649112999999998        1.0178269000000000     
  0.85087710000000005        1.0178269000000000     
  0.85526305999999996        1.0178269000000000     
  0.85964903000000004        1.0178269000000000     
  0.86403498999999995        1.0178269000000000     
  0.86842096000000002        1.0178269000000000     
  0.87280692000000004        1.0178269000000000     
  0.87719289000000000        1.0178269000000000     
  0.88157885000000002        1.0178269000000000     
  0.88596481999999999        1.0178269000000000     
  0.89035078000000001        1.0178269000000000     
  0.89473674999999997        1.0178269000000000     
  0.89912270999999999        1.0178269000000000     
  0.90350867999999995        1.0178269000000000     
  0.90789463999999998        1.0178269000000000     
  0.91228061000000005        1.0178269000000000     
  0.91666656999999996        1.0178269000000000     
  0.92105254000000003        1.0178269000000000     
  0.92543850000000005        1.0178269000000000     
  0.92982447000000001        1.0178269000000000     
  0.93421043000000004        1.0178269000000000     
  0.93859640000000000        1.0178269000000000     
  0.94298236000000002        1.0178269000000000     
  0.94736832999999998        1.0178269000000000     
  0.95175430000000005        1.0178269000000000     
  0.95614025999999996        1.0178269000000000     
  0.96052623000000004        1.0178269000000000     
  0.96491218999999995        1.0178269000000000     
  0.96929816000000002        1.0178269000000000     
  0.97368412000000004        1.0178269000000000     
  0.97807009000000000        1.0178269000000000     
  0.98245605000000003        1.0178269000000000     
  0.98684201999999999        1.0178269000000000     
  0.99122798000000001        1.0178269000000000     
  0.99561394999999997        1.0178269000000000     
  0.99999990999999999        1.0178269000000000     
   1.0089199000000000        1.0178269000000000     
   1.0178267999999999        1.0178269000000000     
   1.0267206000000000        1.0178269000000000     
   1.0356014000000000        1.0178269000000000     
   1.0444690999999999        1.0178269000000000     
   1.0533237000000000        1.0178269000000000     
   1.0621653000000000        1.0178269000000000     
   1.0709940000000000        1.0178269000000000     
   1.0798095999999999        1.0178269000000000     
   1.0886122000000000        1.0178269000000000     
   1.0974018999999999        1.0178269000000000     
   1.1061786000000000        1.0178269000000000     
  0.49999988000000001        1.0267207000000000     
  0.50438585000000002        1.0267207000000000     
  0.50877181000000005        1.0267207000000000     
  0.51315778000000001        1.0267207000000000     
  0.51754374000000003        1.0267207000000000     
  0.52192970999999999        1.0267207000000000     
  0.52631567000000001        1.0267207000000000     
  0.53070163999999997        1.0267207000000000     
  0.53508760000000000        1.0267207000000000     
  0.53947356999999996        1.0267207000000000     
  0.54385952999999998        1.0267207000000000     
  0.54824550000000005        1.0267207000000000     
  0.55263145999999996        1.0267207000000000     
  0.55701743000000004        1.0267207000000000     
  0.56140338999999995        1.0267207000000000     
  0.56578936000000002        1.0267207000000000     
  0.57017532000000004        1.0267207000000000     
  0.57456129000000000        1.0267207000000000     
  0.57894725000000002        1.0267207000000000     
  0.58333321999999999        1.0267207000000000     
  0.58771918000000001        1.0267207000000000     
  0.59210514999999997        1.0267207000000000     
  0.59649110999999999        1.0267207000000000     
  0.60087707999999995        1.0267207000000000     
  0.60526305000000002        1.0267207000000000     
  0.60964901000000005        1.0267207000000000     
  0.61403498000000001        1.0267207000000000     
  0.61842094000000003        1.0267207000000000     
  0.62280690999999999        1.0267207000000000     
  0.62719287000000001        1.0267207000000000     
  0.63157883999999997        1.0267207000000000     
  0.63596480000000000        1.0267207000000000     
  0.64035076999999996        1.0267207000000000     
  0.64473672999999998        1.0267207000000000     
  0.64912270000000005        1.0267207000000000     
  0.65350865999999996        1.0267207000000000     
  0.65789463000000004        1.0267207000000000     
  0.66228058999999995        1.0267207000000000     
  0.66666656000000002        1.0267207000000000     
  0.67105252000000004        1.0267207000000000     
  0.67543849000000000        1.0267207000000000     
  0.67982445000000002        1.0267207000000000     
  0.68421041999999999        1.0267207000000000     
  0.68859638000000001        1.0267207000000000     
  0.69298234999999997        1.0267207000000000     
  0.69736830999999999        1.0267207000000000     
  0.70175427999999995        1.0267207000000000     
  0.70614023999999997        1.0267207000000000     
  0.71052621000000005        1.0267207000000000     
  0.71491216999999996        1.0267207000000000     
  0.71929814000000003        1.0267207000000000     
  0.72368410999999999        1.0267207000000000     
  0.72807007000000001        1.0267207000000000     
  0.73245603999999997        1.0267207000000000     
  0.73684200000000000        1.0267207000000000     
  0.74122796999999996        1.0267207000000000     
  0.74561392999999998        1.0267207000000000     
  0.74999990000000005        1.0267207000000000     
  0.75438585999999996        1.0267207000000000     
  0.75877183000000004        1.0267207000000000     
  0.76315778999999995        1.0267207000000000     
  0.76754376000000002        1.0267207000000000     
  0.77192972000000004        1.0267207000000000     
  0.77631569000000000        1.0267207000000000     
  0.78070165000000002        1.0267207000000000     
  0.78508761999999999        1.0267207000000000     
  0.78947358000000001        1.0267207000000000     
  0.79385954999999997        1.0267207000000000     
  0.79824550999999999        1.0267207000000000     
  0.80263147999999995        1.0267207000000000     
  0.80701743999999997        1.0267207000000000     
  0.81140341000000005        1.0267207000000000     
  0.81578936999999996        1.0267207000000000     
  0.82017534000000003        1.0267207000000000     
  0.82456130000000005        1.0267207000000000     
  0.82894727000000001        1.0267207000000000     
  0.83333323999999998        1.0267207000000000     
  0.83771920000000000        1.0267207000000000     
  0.84210516999999996        1.0267207000000000     
  0.84649112999999998        1.0267207000000000     
  0.85087710000000005        1.0267207000000000     
  0.85526305999999996        1.0267207000000000     
  0.85964903000000004        1.0267207000000000     
  0.86403498999999995        1.0267207000000000     
  0.86842096000000002        1.0267207000000000     
  0.87280692000000004        1.0267207000000000     
  0.87719289000000000        1.0267207000000000     
  0.88157885000000002        1.0267207000000000     
  0.88596481999999999        1.0267207000000000     
  0.89035078000000001        1.0267207000000000     
  0.89473674999999997        1.0267207000000000     
  0.89912270999999999        1.0267207000000000     
  0.90350867999999995        1.0267207000000000     
  0.90789463999999998        1.0267207000000000     
  0.91228061000000005        1.0267207000000000     
  0.91666656999999996        1.0267207000000000     
  0.92105254000000003        1.0267207000000000     
  0.92543850000000005        1.0267207000000000     
  0.92982447000000001        1.0267207000000000     
  0.93421043000000004        1.0267207000000000     
  0.93859640000000000        1.0267207000000000     
  0.94298236000000002        1.0267207000000000     
  0.94736832999999998        1.0267207000000000     
  0.95175430000000005        1.0267207000000000     
  0.95614025999999996        1.0267207000000000     
  0.96052623000000004        1.0267207000000000     
  0.96491218999999995        1.0267207000000000     
  0.96929816000000002        1.0267207000000000     
  0.97368412000000004        1.0267207000000000     
  0.97807009000000000        1.0267207000000000     
  0.98245605000000003        1.0267207000000000     
  0.98684201999999999        1.0267207000000000     
  0.99122798000000001        1.0267207000000000     
  0.99561394999999997        1.0267207000000000     
  0.99999990999999999        1.0267207000000000     
   1.0089199000000000        1.0267207000000000     
   1.0178267999999999        1.0267207000000000     
   1.0267206000000000        1.0267207000000000     
   1.0356014000000000        1.0267207000000000     
   1.0444690999999999        1.0267207000000000     
   1.0533237000000000        1.0267207000000000     
   1.0621653000000000        1.0267207000000000     
   1.0709940000000000        1.0267207000000000     
   1.0798095999999999        1.0267207000000000     
   1.0886122000000000        1.0267207000000000     
   1.0974018999999999        1.0267207000000000     
   1.1061786000000000        1.0267207000000000     
  0.49999988000000001        1.0356015000000001     
  0.50438585000000002        1.0356015000000001     
  0.50877181000000005        1.0356015000000001     
  0.51315778000000001        1.0356015000000001     
  0.51754374000000003        1.0356015000000001     
  0.52192970999999999        1.0356015000000001     
  0.52631567000000001        1.0356015000000001     
  0.53070163999999997        1.0356015000000001     
  0.53508760000000000        1.0356015000000001     
  0.53947356999999996        1.0356015000000001     
  0.54385952999999998        1.0356015000000001     
  0.54824550000000005        1.0356015000000001     
  0.55263145999999996        1.0356015000000001     
  0.55701743000000004        1.0356015000000001     
  0.56140338999999995        1.0356015000000001     
  0.56578936000000002        1.0356015000000001     
  0.57017532000000004        1.0356015000000001     
  0.57456129000000000        1.0356015000000001     
  0.57894725000000002        1.0356015000000001     
  0.58333321999999999        1.0356015000000001     
  0.58771918000000001        1.0356015000000001     
  0.59210514999999997        1.0356015000000001     
  0.59649110999999999        1.0356015000000001     
  0.60087707999999995        1.0356015000000001     
  0.60526305000000002        1.0356015000000001     
  0.60964901000000005        1.0356015000000001     
  0.61403498000000001        1.0356015000000001     
  0.61842094000000003        1.0356015000000001     
  0.62280690999999999        1.0356015000000001     
  0.62719287000000001        1.0356015000000001     
  0.63157883999999997        1.0356015000000001     
  0.63596480000000000        1.0356015000000001     
  0.64035076999999996        1.0356015000000001     
  0.64473672999999998        1.0356015000000001     
  0.64912270000000005        1.0356015000000001     
  0.65350865999999996        1.0356015000000001     
  0.65789463000000004        1.0356015000000001     
  0.66228058999999995        1.0356015000000001     
  0.66666656000000002        1.0356015000000001     
  0.67105252000000004        1.0356015000000001     
  0.67543849000000000        1.0356015000000001     
  0.67982445000000002        1.0356015000000001     
  0.68421041999999999        1.0356015000000001     
  0.68859638000000001        1.0356015000000001     
  0.69298234999999997        1.0356015000000001     
  0.69736830999999999        1.0356015000000001     
  0.70175427999999995        1.0356015000000001     
  0.70614023999999997        1.0356015000000001     
  0.71052621000000005        1.0356015000000001     
  0.71491216999999996        1.0356015000000001     
  0.71929814000000003        1.0356015000000001     
  0.72368410999999999        1.0356015000000001     
  0.72807007000000001        1.0356015000000001     
  0.73245603999999997        1.0356015000000001     
  0.73684200000000000        1.0356015000000001     
  0.74122796999999996        1.0356015000000001     