 TITLE = "GRIDBLO_BC0019"
 VARIABLES = "X","Y"
ZONE I=   121,J=   141  ,DATAPACKING=POINT
  -3.0000000000000000        2.0840353000000000     
  -2.9955555999999999        2.0840353000000000     
  -2.9911110999999999        2.0840353000000000     
  -2.9866666999999998        2.0840353000000000     
  -2.9822221999999998        2.0840353000000000     
  -2.9777778000000001        2.0840353000000000     
  -2.9733333000000002        2.0840353000000000     
  -2.9688889000000001        2.0840353000000000     
  -2.9644444000000001        2.0840353000000000     
  -2.9600000000000000        2.0840353000000000     
  -2.9555555999999998        2.0840353000000000     
  -2.9511110999999999        2.0840353000000000     
  -2.9466667000000002        2.0840353000000000     
  -2.9422221999999998        2.0840353000000000     
  -2.9377778000000001        2.0840353000000000     
  -2.9333333000000001        2.0840353000000000     
  -2.9288889000000000        2.0840353000000000     
  -2.9244444000000001        2.0840353000000000     
  -2.9199999999999999        2.0840353000000000     
  -2.9155555999999998        2.0840353000000000     
  -2.9111110999999998        2.0840353000000000     
  -2.9066667000000002        2.0840353000000000     
  -2.9022222000000002        2.0840353000000000     
  -2.8977778000000001        2.0840353000000000     
  -2.8933333000000001        2.0840353000000000     
  -2.8888889000000000        2.0840353000000000     
  -2.8844444000000000        2.0840353000000000     
  -2.8799999999999999        2.0840353000000000     
  -2.8755556000000002        2.0840353000000000     
  -2.8711110999999998        2.0840353000000000     
  -2.8666667000000001        2.0840353000000000     
  -2.8622222000000002        2.0840353000000000     
  -2.8577778000000000        2.0840353000000000     
  -2.8533333000000001        2.0840353000000000     
  -2.8488888999999999        2.0840353000000000     
  -2.8444444000000000        2.0840353000000000     
  -2.8399999999999999        2.0840353000000000     
  -2.8355554999999999        2.0840353000000000     
  -2.8311111000000002        2.0840353000000000     
  -2.8266667000000001        2.0840353000000000     
  -2.8222222000000001        2.0840353000000000     
  -2.8177778000000000        2.0840353000000000     
  -2.8133333000000000        2.0840353000000000     
  -2.8088888999999999        2.0840353000000000     
  -2.8044443999999999        2.0840353000000000     
  -2.7999999999999998        2.0840353000000000     
  -2.7955554999999999        2.0840353000000000     
  -2.7911111000000002        2.0840353000000000     
  -2.7866667000000001        2.0840353000000000     
  -2.7822222000000001        2.0840353000000000     
  -2.7777778000000000        2.0840353000000000     
  -2.7733333000000000        2.0840353000000000     
  -2.7688888999999999        2.0840353000000000     
  -2.7644443999999999        2.0840353000000000     
  -2.7599999999999998        2.0840353000000000     
  -2.7555554999999998        2.0840353000000000     
  -2.7511111000000001        2.0840353000000000     
  -2.7466667000000000        2.0840353000000000     
  -2.7422222000000001        2.0840353000000000     
  -2.7377777999999999        2.0840353000000000     
  -2.7333333000000000        2.0840353000000000     
  -2.7288888999999998        2.0840353000000000     
  -2.7244443999999999        2.0840353000000000     
  -2.7200000000000002        2.0840353000000000     
  -2.7155554999999998        2.0840353000000000     
  -2.7111111000000001        2.0840353000000000     
  -2.7066667000000000        2.0840353000000000     
  -2.7022222000000000        2.0840353000000000     
  -2.6977777999999999        2.0840353000000000     
  -2.6933332999999999        2.0840353000000000     
  -2.6888888999999998        2.0840353000000000     
  -2.6844443999999998        2.0840353000000000     
  -2.6800000000000002        2.0840353000000000     
  -2.6755555000000002        2.0840353000000000     
  -2.6711111000000001        2.0840353000000000     
  -2.6666666999999999        2.0840353000000000     
  -2.6622222000000000        2.0840353000000000     
  -2.6577777999999999        2.0840353000000000     
  -2.6533332999999999        2.0840353000000000     
  -2.6488889000000002        2.0840353000000000     
  -2.6444443999999998        2.0840353000000000     
  -2.6400000000000001        2.0840353000000000     
  -2.6355555000000002        2.0840353000000000     
  -2.6311111000000000        2.0840353000000000     
  -2.6266666999999999        2.0840353000000000     
  -2.6222221999999999        2.0840353000000000     
  -2.6177777999999998        2.0840353000000000     
  -2.6133332999999999        2.0840353000000000     
  -2.6088889000000002        2.0840353000000000     
  -2.6044444000000002        2.0840353000000000     
  -2.6000000000000001        2.0840353000000000     
  -2.5955555000000001        2.0840353000000000     
  -2.5911111000000000        2.0840353000000000     
  -2.5866666999999999        2.0840353000000000     
  -2.5822221999999999        2.0840353000000000     
  -2.5777777999999998        2.0840353000000000     
  -2.5733332999999998        2.0840353000000000     
  -2.5688889000000001        2.0840353000000000     
  -2.5644444000000002        2.0840353000000000     
  -2.5600000000000001        2.0840353000000000     
  -2.5555555000000001        2.0840353000000000     
  -2.5511111000000000        2.0840353000000000     
  -2.5466666000000000        2.0840353000000000     
  -2.5422221999999999        2.0840353000000000     
  -2.5377778000000002        2.0840353000000000     
  -2.5333332999999998        2.0840353000000000     
  -2.5288889000000001        2.0840353000000000     
  -2.5244444000000001        2.0840353000000000     
  -2.5200000000000000        2.0840353000000000     
  -2.5155555000000001        2.0840353000000000     
  -2.5111110999999999        2.0840353000000000     
  -2.5066666000000000        2.0840353000000000     
  -2.5022221999999998        2.0840353000000000     
  -2.4977778000000002        2.0840353000000000     
  -2.4933333000000002        2.0840353000000000     
  -2.4888889000000001        2.0840353000000000     
  -2.4844444000000001        2.0840353000000000     
  -2.4800000000000000        2.0840353000000000     
  -2.4755555000000000        2.0840353000000000     
  -2.4711110999999999        2.0840353000000000     
  -2.4666665999999999        2.0840353000000000     
  -3.0000000000000000        2.0913232000000002     
  -2.9955555999999999        2.0913232000000002     
  -2.9911110999999999        2.0913232000000002     
  -2.9866666999999998        2.0913232000000002     
  -2.9822221999999998        2.0913232000000002     
  -2.9777778000000001        2.0913232000000002     
  -2.9733333000000002        2.0913232000000002     
  -2.9688889000000001        2.0913232000000002     
  -2.9644444000000001        2.0913232000000002     
  -2.9600000000000000        2.0913232000000002     
  -2.9555555999999998        2.0913232000000002     
  -2.9511110999999999        2.0913232000000002     
  -2.9466667000000002        2.0913232000000002     
  -2.9422221999999998        2.0913232000000002     
  -2.9377778000000001        2.0913232000000002     
  -2.9333333000000001        2.0913232000000002     
  -2.9288889000000000        2.0913232000000002     
  -2.9244444000000001        2.0913232000000002     
  -2.9199999999999999        2.0913232000000002     
  -2.9155555999999998        2.0913232000000002     
  -2.9111110999999998        2.0913232000000002     
  -2.9066667000000002        2.0913232000000002     
  -2.9022222000000002        2.0913232000000002     
  -2.8977778000000001        2.0913232000000002     
  -2.8933333000000001        2.0913232000000002     
  -2.8888889000000000        2.0913232000000002     
  -2.8844444000000000        2.0913232000000002     
  -2.8799999999999999        2.0913232000000002     
  -2.8755556000000002        2.0913232000000002     
  -2.8711110999999998        2.0913232000000002     
  -2.8666667000000001        2.0913232000000002     
  -2.8622222000000002        2.0913232000000002     
  -2.8577778000000000        2.0913232000000002     
  -2.8533333000000001        2.0913232000000002     
  -2.8488888999999999        2.0913232000000002     
  -2.8444444000000000        2.0913232000000002     
  -2.8399999999999999        2.0913232000000002     
  -2.8355554999999999        2.0913232000000002     
  -2.8311111000000002        2.0913232000000002     
  -2.8266667000000001        2.0913232000000002     
  -2.8222222000000001        2.0913232000000002     
  -2.8177778000000000        2.0913232000000002     
  -2.8133333000000000        2.0913232000000002     
  -2.8088888999999999        2.0913232000000002     
  -2.8044443999999999        2.0913232000000002     
  -2.7999999999999998        2.0913232000000002     
  -2.7955554999999999        2.0913232000000002     
  -2.7911111000000002        2.0913232000000002     
  -2.7866667000000001        2.0913232000000002     
  -2.7822222000000001        2.0913232000000002     
  -2.7777778000000000        2.0913232000000002     
  -2.7733333000000000        2.0913232000000002     
  -2.7688888999999999        2.0913232000000002     
  -2.7644443999999999        2.0913232000000002     
  -2.7599999999999998        2.0913232000000002     
  -2.7555554999999998        2.0913232000000002     
  -2.7511111000000001        2.0913232000000002     
  -2.7466667000000000        2.0913232000000002     
  -2.7422222000000001        2.0913232000000002     
  -2.7377777999999999        2.0913232000000002     
  -2.7333333000000000        2.0913232000000002     
  -2.7288888999999998        2.0913232000000002     
  -2.7244443999999999        2.0913232000000002     
  -2.7200000000000002        2.0913232000000002     
  -2.7155554999999998        2.0913232000000002     
  -2.7111111000000001        2.0913232000000002     
  -2.7066667000000000        2.0913232000000002     
  -2.7022222000000000        2.0913232000000002     
  -2.6977777999999999        2.0913232000000002     
  -2.6933332999999999        2.0913232000000002     
  -2.6888888999999998        2.0913232000000002     
  -2.6844443999999998        2.0913232000000002     
  -2.6800000000000002        2.0913232000000002     
  -2.6755555000000002        2.0913232000000002     
  -2.6711111000000001        2.0913232000000002     
  -2.6666666999999999        2.0913232000000002     
  -2.6622222000000000        2.0913232000000002     
  -2.6577777999999999        2.0913232000000002     
  -2.6533332999999999        2.0913232000000002     
  -2.6488889000000002        2.0913232000000002     
  -2.6444443999999998        2.0913232000000002     
  -2.6400000000000001        2.0913232000000002     
  -2.6355555000000002        2.0913232000000002     
  -2.6311111000000000        2.0913232000000002     
  -2.6266666999999999        2.0913232000000002     
  -2.6222221999999999        2.0913232000000002     
  -2.6177777999999998        2.0913232000000002     
  -2.6133332999999999        2.0913232000000002     
  -2.6088889000000002        2.0913232000000002     
  -2.6044444000000002        2.0913232000000002     
  -2.6000000000000001        2.0913232000000002     
  -2.5955555000000001        2.0913232000000002     
  -2.5911111000000000        2.0913232000000002     
  -2.5866666999999999        2.0913232000000002     
  -2.5822221999999999        2.0913232000000002     
  -2.5777777999999998        2.0913232000000002     
  -2.5733332999999998        2.0913232000000002     
  -2.5688889000000001        2.0913232000000002     
  -2.5644444000000002        2.0913232000000002     
  -2.5600000000000001        2.0913232000000002     
  -2.5555555000000001        2.0913232000000002     
  -2.5511111000000000        2.0913232000000002     
  -2.5466666000000000        2.0913232000000002     
  -2.5422221999999999        2.0913232000000002     
  -2.5377778000000002        2.0913232000000002     
  -2.5333332999999998        2.0913232000000002     
  -2.5288889000000001        2.0913232000000002     
  -2.5244444000000001        2.0913232000000002     
  -2.5200000000000000        2.0913232000000002     
  -2.5155555000000001        2.0913232000000002     
  -2.5111110999999999        2.0913232000000002     
  -2.5066666000000000        2.0913232000000002     
  -2.5022221999999998        2.0913232000000002     
  -2.4977778000000002        2.0913232000000002     
  -2.4933333000000002        2.0913232000000002     
  -2.4888889000000001        2.0913232000000002     
  -2.4844444000000001        2.0913232000000002     
  -2.4800000000000000        2.0913232000000002     
  -2.4755555000000000        2.0913232000000002     
  -2.4711110999999999        2.0913232000000002     
  -2.4666665999999999        2.0913232000000002     
  -3.0000000000000000        2.0985999000000000     
  -2.9955555999999999        2.0985999000000000     
  -2.9911110999999999        2.0985999000000000     
  -2.9866666999999998        2.0985999000000000     
  -2.9822221999999998        2.0985999000000000     
  -2.9777778000000001        2.0985999000000000     
  -2.9733333000000002        2.0985999000000000     
  -2.9688889000000001        2.0985999000000000     
  -2.9644444000000001        2.0985999000000000     
  -2.9600000000000000        2.0985999000000000     
  -2.9555555999999998        2.0985999000000000     
  -2.9511110999999999        2.0985999000000000     
  -2.9466667000000002        2.0985999000000000     
  -2.9422221999999998        2.0985999000000000     
  -2.9377778000000001        2.0985999000000000     
  -2.9333333000000001        2.0985999000000000     
  -2.9288889000000000        2.0985999000000000     
  -2.9244444000000001        2.0985999000000000     
  -2.9199999999999999        2.0985999000000000     
  -2.9155555999999998        2.0985999000000000     
  -2.9111110999999998        2.0985999000000000     
  -2.9066667000000002        2.0985999000000000     
  -2.9022222000000002        2.0985999000000000     
  -2.8977778000000001        2.0985999000000000     
  -2.8933333000000001        2.0985999000000000     
  -2.8888889000000000        2.0985999000000000     
  -2.8844444000000000        2.0985999000000000     
  -2.8799999999999999        2.0985999000000000     
  -2.8755556000000002        2.0985999000000000     
  -2.8711110999999998        2.0985999000000000     
  -2.8666667000000001        2.0985999000000000     
  -2.8622222000000002        2.0985999000000000     
  -2.8577778000000000        2.0985999000000000     
  -2.8533333000000001        2.0985999000000000     
  -2.8488888999999999        2.0985999000000000     
  -2.8444444000000000        2.0985999000000000     
  -2.8399999999999999        2.0985999000000000     
  -2.8355554999999999        2.0985999000000000     
  -2.8311111000000002        2.0985999000000000     
  -2.8266667000000001        2.0985999000000000     
  -2.8222222000000001        2.0985999000000000     
  -2.8177778000000000        2.0985999000000000     
  -2.8133333000000000        2.0985999000000000     
  -2.8088888999999999        2.0985999000000000     
  -2.8044443999999999        2.0985999000000000     
  -2.7999999999999998        2.0985999000000000     
  -2.7955554999999999        2.0985999000000000     
  -2.7911111000000002        2.0985999000000000     
  -2.7866667000000001        2.0985999000000000     
  -2.7822222000000001        2.0985999000000000     
  -2.7777778000000000        2.0985999000000000     
  -2.7733333000000000        2.0985999000000000     
  -2.7688888999999999        2.0985999000000000     
  -2.7644443999999999        2.0985999000000000     
  -2.7599999999999998        2.0985999000000000     
  -2.7555554999999998        2.0985999000000000     
  -2.7511111000000001        2.0985999000000000     
  -2.7466667000000000        2.0985999000000000     
  -2.7422222000000001        2.0985999000000000     
  -2.7377777999999999        2.0985999000000000     
  -2.7333333000000000        2.0985999000000000     
  -2.7288888999999998        2.0985999000000000     
  -2.7244443999999999        2.0985999000000000     
  -2.7200000000000002        2.0985999000000000     
  -2.7155554999999998        2.0985999000000000     
  -2.7111111000000001        2.0985999000000000     
  -2.7066667000000000        2.0985999000000000     
  -2.7022222000000000        2.0985999000000000     
  -2.6977777999999999        2.0985999000000000     
  -2.6933332999999999        2.0985999000000000     
  -2.6888888999999998        2.0985999000000000     
  -2.6844443999999998        2.0985999000000000     
  -2.6800000000000002        2.0985999000000000     
  -2.6755555000000002        2.0985999000000000     
  -2.6711111000000001        2.0985999000000000     
  -2.6666666999999999        2.0985999000000000     
  -2.6622222000000000        2.0985999000000000     
  -2.6577777999999999        2.0985999000000000     
  -2.6533332999999999        2.0985999000000000     
  -2.6488889000000002        2.0985999000000000     
  -2.6444443999999998        2.0985999000000000     
  -2.6400000000000001        2.0985999000000000     
  -2.6355555000000002        2.0985999000000000     
  -2.6311111000000000        2.0985999000000000     
  -2.6266666999999999        2.0985999000000000     
  -2.6222221999999999        2.0985999000000000     
  -2.6177777999999998        2.0985999000000000     
  -2.6133332999999999        2.0985999000000000     
  -2.6088889000000002        2.0985999000000000     
  -2.6044444000000002        2.0985999000000000     
  -2.6000000000000001        2.0985999000000000     
  -2.5955555000000001        2.0985999000000000     
  -2.5911111000000000        2.0985999000000000     
  -2.5866666999999999        2.0985999000000000     
  -2.5822221999999999        2.0985999000000000     
  -2.5777777999999998        2.0985999000000000     
  -2.5733332999999998        2.0985999000000000     
  -2.5688889000000001        2.0985999000000000     
  -2.5644444000000002        2.0985999000000000     
  -2.5600000000000001        2.0985999000000000     
  -2.5555555000000001        2.0985999000000000     
  -2.5511111000000000        2.0985999000000000     
  -2.5466666000000000        2.0985999000000000     
  -2.5422221999999999        2.0985999000000000     
  -2.5377778000000002        2.0985999000000000     
  -2.5333332999999998        2.0985999000000000     
  -2.5288889000000001        2.0985999000000000     
  -2.5244444000000001        2.0985999000000000     
  -2.5200000000000000        2.0985999000000000     
  -2.5155555000000001        2.0985999000000000     
  -2.5111110999999999        2.0985999000000000     
  -2.5066666000000000        2.0985999000000000     
  -2.5022221999999998        2.0985999000000000     
  -2.4977778000000002        2.0985999000000000     
  -2.4933333000000002        2.0985999000000000     
  -2.4888889000000001        2.0985999000000000     
  -2.4844444000000001        2.0985999000000000     
  -2.4800000000000000        2.0985999000000000     
  -2.4755555000000000        2.0985999000000000     
  -2.4711110999999999        2.0985999000000000     
  -2.4666665999999999        2.0985999000000000     
  -3.0000000000000000        2.1058653000000001     
  -2.9955555999999999        2.1058653000000001     
  -2.9911110999999999        2.1058653000000001     
  -2.9866666999999998        2.1058653000000001     
  -2.9822221999999998        2.1058653000000001     
  -2.9777778000000001        2.1058653000000001     
  -2.9733333000000002        2.1058653000000001     
  -2.9688889000000001        2.1058653000000001     
  -2.9644444000000001        2.1058653000000001     
  -2.9600000000000000        2.1058653000000001     
  -2.9555555999999998        2.1058653000000001     
  -2.9511110999999999        2.1058653000000001     
  -2.9466667000000002        2.1058653000000001     
  -2.9422221999999998        2.1058653000000001     
  -2.9377778000000001        2.1058653000000001     
  -2.9333333000000001        2.1058653000000001     
  -2.9288889000000000        2.1058653000000001     
  -2.9244444000000001        2.1058653000000001     
  -2.9199999999999999        2.1058653000000001     
  -2.9155555999999998        2.1058653000000001     
  -2.9111110999999998        2.1058653000000001     
  -2.9066667000000002        2.1058653000000001     
  -2.9022222000000002        2.1058653000000001     
  -2.8977778000000001        2.1058653000000001     
  -2.8933333000000001        2.1058653000000001     
  -2.8888889000000000        2.1058653000000001     
  -2.8844444000000000        2.1058653000000001     
  -2.8799999999999999        2.1058653000000001     
  -2.8755556000000002        2.1058653000000001     
  -2.8711110999999998        2.1058653000000001     
  -2.8666667000000001        2.1058653000000001     
  -2.8622222000000002        2.1058653000000001     
  -2.8577778000000000        2.1058653000000001     
  -2.8533333000000001        2.1058653000000001     
  -2.8488888999999999        2.1058653000000001     
  -2.8444444000000000        2.1058653000000001     
  -2.8399999999999999        2.1058653000000001     
  -2.8355554999999999        2.1058653000000001     
  -2.8311111000000002        2.1058653000000001     
  -2.8266667000000001        2.1058653000000001     
  -2.8222222000000001        2.1058653000000001     
  -2.8177778000000000        2.1058653000000001     
  -2.8133333000000000        2.1058653000000001     
  -2.8088888999999999        2.1058653000000001     
  -2.8044443999999999        2.1058653000000001     
  -2.7999999999999998        2.1058653000000001     
  -2.7955554999999999        2.1058653000000001     
  -2.7911111000000002        2.1058653000000001     
  -2.7866667000000001        2.1058653000000001     
  -2.7822222000000001        2.1058653000000001     
  -2.7777778000000000        2.1058653000000001     
  -2.7733333000000000        2.1058653000000001     
  -2.7688888999999999        2.1058653000000001     
  -2.7644443999999999        2.1058653000000001     
  -2.7599999999999998        2.1058653000000001     
  -2.7555554999999998        2.1058653000000001     
  -2.7511111000000001        2.1058653000000001     
  -2.7466667000000000        2.1058653000000001     
  -2.7422222000000001        2.1058653000000001     
  -2.7377777999999999        2.1058653000000001     
  -2.7333333000000000        2.1058653000000001     
  -2.7288888999999998        2.1058653000000001     
  -2.7244443999999999        2.1058653000000001     
  -2.7200000000000002        2.1058653000000001     
  -2.7155554999999998        2.1058653000000001     
  -2.7111111000000001        2.1058653000000001     
  -2.7066667000000000        2.1058653000000001     
  -2.7022222000000000        2.1058653000000001     
  -2.6977777999999999        2.1058653000000001     
  -2.6933332999999999        2.1058653000000001     
  -2.6888888999999998        2.1058653000000001     
  -2.6844443999999998        2.1058653000000001     
  -2.6800000000000002        2.1058653000000001     
  -2.6755555000000002        2.1058653000000001     
  -2.6711111000000001        2.1058653000000001     
  -2.6666666999999999        2.1058653000000001     
  -2.6622222000000000        2.1058653000000001     
  -2.6577777999999999        2.1058653000000001     
  -2.6533332999999999        2.1058653000000001     
  -2.6488889000000002        2.1058653000000001     
  -2.6444443999999998        2.1058653000000001     
  -2.6400000000000001        2.1058653000000001     
  -2.6355555000000002        2.1058653000000001     
  -2.6311111000000000        2.1058653000000001     
  -2.6266666999999999        2.1058653000000001     
  -2.6222221999999999        2.1058653000000001     
  -2.6177777999999998        2.1058653000000001     
  -2.6133332999999999        2.1058653000000001     
  -2.6088889000000002        2.1058653000000001     
  -2.6044444000000002        2.1058653000000001     
  -2.6000000000000001        2.1058653000000001     
  -2.5955555000000001        2.1058653000000001     
  -2.5911111000000000        2.1058653000000001     
  -2.5866666999999999        2.1058653000000001     
  -2.5822221999999999        2.1058653000000001     
  -2.5777777999999998        2.1058653000000001     
  -2.5733332999999998        2.1058653000000001     
  -2.5688889000000001        2.1058653000000001     
  -2.5644444000000002        2.1058653000000001     
  -2.5600000000000001        2.1058653000000001     
  -2.5555555000000001        2.1058653000000001     
  -2.5511111000000000        2.1058653000000001     
  -2.5466666000000000        2.1058653000000001     
  -2.5422221999999999        2.1058653000000001     
  -2.5377778000000002        2.1058653000000001     
  -2.5333332999999998        2.1058653000000001     
  -2.5288889000000001        2.1058653000000001     
  -2.5244444000000001        2.1058653000000001     
  -2.5200000000000000        2.1058653000000001     
  -2.5155555000000001        2.1058653000000001     
  -2.5111110999999999        2.1058653000000001     
  -2.5066666000000000        2.1058653000000001     
  -2.5022221999999998        2.1058653000000001     
  -2.4977778000000002        2.1058653000000001     
  -2.4933333000000002        2.1058653000000001     
  -2.4888889000000001        2.1058653000000001     
  -2.4844444000000001        2.1058653000000001     
  -2.4800000000000000        2.1058653000000001     
  -2.4755555000000000        2.1058653000000001     
  -2.4711110999999999        2.1058653000000001     
  -2.4666665999999999        2.1058653000000001     
  -3.0000000000000000        2.1131194000000000     
  -2.9955555999999999        2.1131194000000000     
  -2.9911110999999999        2.1131194000000000     
  -2.9866666999999998        2.1131194000000000     
  -2.9822221999999998        2.1131194000000000     
  -2.9777778000000001        2.1131194000000000     
  -2.9733333000000002        2.1131194000000000     
  -2.9688889000000001        2.1131194000000000     
  -2.9644444000000001        2.1131194000000000     
  -2.9600000000000000        2.1131194000000000     
  -2.9555555999999998        2.1131194000000000     
  -2.9511110999999999        2.1131194000000000     
  -2.9466667000000002        2.1131194000000000     
  -2.9422221999999998        2.1131194000000000     
  -2.9377778000000001        2.1131194000000000     
  -2.9333333000000001        2.1131194000000000     
  -2.9288889000000000        2.1131194000000000     
  -2.9244444000000001        2.1131194000000000     
  -2.9199999999999999        2.1131194000000000     
  -2.9155555999999998        2.1131194000000000     
  -2.9111110999999998        2.1131194000000000     
  -2.9066667000000002        2.1131194000000000     
  -2.9022222000000002        2.1131194000000000     
  -2.8977778000000001        2.1131194000000000     
  -2.8933333000000001        2.1131194000000000     
  -2.8888889000000000        2.1131194000000000     
  -2.8844444000000000        2.1131194000000000     
  -2.8799999999999999        2.1131194000000000     
  -2.8755556000000002        2.1131194000000000     
  -2.8711110999999998        2.1131194000000000     
  -2.8666667000000001        2.1131194000000000     
  -2.8622222000000002        2.1131194000000000     
  -2.8577778000000000        2.1131194000000000     
  -2.8533333000000001        2.1131194000000000     
  -2.8488888999999999        2.1131194000000000     
  -2.8444444000000000        2.1131194000000000     
  -2.8399999999999999        2.1131194000000000     
  -2.8355554999999999        2.1131194000000000     
  -2.8311111000000002        2.1131194000000000     
  -2.8266667000000001        2.1131194000000000     
  -2.8222222000000001        2.1131194000000000     
  -2.8177778000000000        2.1131194000000000     
  -2.8133333000000000        2.1131194000000000     
  -2.8088888999999999        2.1131194000000000     
  -2.8044443999999999        2.1131194000000000     
  -2.7999999999999998        2.1131194000000000     
  -2.7955554999999999        2.1131194000000000     
  -2.7911111000000002        2.1131194000000000     
  -2.7866667000000001        2.1131194000000000     
  -2.7822222000000001        2.1131194000000000     
  -2.7777778000000000        2.1131194000000000     
  -2.7733333000000000        2.1131194000000000     
  -2.7688888999999999        2.1131194000000000     
  -2.7644443999999999        2.1131194000000000     
  -2.7599999999999998        2.1131194000000000     
  -2.7555554999999998        2.1131194000000000     
  -2.7511111000000001        2.1131194000000000     
  -2.7466667000000000        2.1131194000000000     
  -2.7422222000000001        2.1131194000000000     
  -2.7377777999999999        2.1131194000000000     
  -2.7333333000000000        2.1131194000000000     
  -2.7288888999999998        2.1131194000000000     
  -2.7244443999999999        2.1131194000000000     
  -2.7200000000000002        2.1131194000000000     
  -2.7155554999999998        2.1131194000000000     
  -2.7111111000000001        2.1131194000000000     
  -2.7066667000000000        2.1131194000000000     
  -2.7022222000000000        2.1131194000000000     
  -2.6977777999999999        2.1131194000000000     
  -2.6933332999999999        2.1131194000000000     
  -2.6888888999999998        2.1131194000000000     
  -2.6844443999999998        2.1131194000000000     
  -2.6800000000000002        2.1131194000000000     
  -2.6755555000000002        2.1131194000000000     
  -2.6711111000000001        2.1131194000000000     
  -2.6666666999999999        2.1131194000000000     
  -2.6622222000000000        2.1131194000000000     
  -2.6577777999999999        2.1131194000000000     
  -2.6533332999999999        2.1131194000000000     
  -2.6488889000000002        2.1131194000000000     