 TITLE = "GRIDBLO_BC0025"
 VARIABLES = "X","Y"
ZONE I=   127,J=   141  ,DATAPACKING=POINT
 -0.99999992000000004        1.0000000000000000     
 -0.99561396000000002        1.0000000000000000     
 -0.99122798999999995        1.0000000000000000     
 -0.98684203000000004        1.0000000000000000     
 -0.98245605999999996        1.0000000000000000     
 -0.97807010000000005        1.0000000000000000     
 -0.97368412999999998        1.0000000000000000     
 -0.96929816999999996        1.0000000000000000     
 -0.96491221000000005        1.0000000000000000     
 -0.96052623999999998        1.0000000000000000     
 -0.95614027999999995        1.0000000000000000     
 -0.95175430999999999        1.0000000000000000     
 -0.94736834999999997        1.0000000000000000     
 -0.94298238000000001        1.0000000000000000     
 -0.93859641999999999        1.0000000000000000     
 -0.93421045000000003        1.0000000000000000     
 -0.92982449000000000        1.0000000000000000     
 -0.92543852000000004        1.0000000000000000     
 -0.92105256000000002        1.0000000000000000     
 -0.91666658999999995        1.0000000000000000     
 -0.91228063000000004        1.0000000000000000     
 -0.90789465999999996        1.0000000000000000     
 -0.90350870000000005        1.0000000000000000     
 -0.89912272999999998        1.0000000000000000     
 -0.89473676999999996        1.0000000000000000     
 -0.89035080000000000        1.0000000000000000     
 -0.88596483999999998        1.0000000000000000     
 -0.88157887000000001        1.0000000000000000     
 -0.87719290999999999        1.0000000000000000     
 -0.87280694999999997        1.0000000000000000     
 -0.86842098000000001        1.0000000000000000     
 -0.86403501999999999        1.0000000000000000     
 -0.85964905000000003        1.0000000000000000     
 -0.85526309000000000        1.0000000000000000     
 -0.85087712000000004        1.0000000000000000     
 -0.84649116000000002        1.0000000000000000     
 -0.84210518999999995        1.0000000000000000     
 -0.83771923000000004        1.0000000000000000     
 -0.83333325999999996        1.0000000000000000     
 -0.82894730000000005        1.0000000000000000     
 -0.82456132999999998        1.0000000000000000     
 -0.82017536999999996        1.0000000000000000     
 -0.81578940000000000        1.0000000000000000     
 -0.81140343999999998        1.0000000000000000     
 -0.80701747000000001        1.0000000000000000     
 -0.80263150999999999        1.0000000000000000     
 -0.79824554000000003        1.0000000000000000     
 -0.79385958000000001        1.0000000000000000     
 -0.78947361000000005        1.0000000000000000     
 -0.78508765000000003        1.0000000000000000     
 -0.78070169000000000        1.0000000000000000     
 -0.77631572000000004        1.0000000000000000     
 -0.77192976000000002        1.0000000000000000     
 -0.76754378999999995        1.0000000000000000     
 -0.76315783000000004        1.0000000000000000     
 -0.75877185999999996        1.0000000000000000     
 -0.75438590000000005        1.0000000000000000     
 -0.74999992999999998        1.0000000000000000     
 -0.74561396999999996        1.0000000000000000     
 -0.74122800000000000        1.0000000000000000     
 -0.73684203999999998        1.0000000000000000     
 -0.73245607000000001        1.0000000000000000     
 -0.72807010999999999        1.0000000000000000     
 -0.72368414000000003        1.0000000000000000     
 -0.71929818000000001        1.0000000000000000     
 -0.71491221000000005        1.0000000000000000     
 -0.71052625000000003        1.0000000000000000     
 -0.70614027999999995        1.0000000000000000     
 -0.70175432000000004        1.0000000000000000     
 -0.69736836000000002        1.0000000000000000     
 -0.69298238999999995        1.0000000000000000     
 -0.68859643000000004        1.0000000000000000     
 -0.68421045999999996        1.0000000000000000     
 -0.67982450000000005        1.0000000000000000     
 -0.67543852999999998        1.0000000000000000     
 -0.67105256999999996        1.0000000000000000     
 -0.66666660000000000        1.0000000000000000     
 -0.66228063999999998        1.0000000000000000     
 -0.65789467000000001        1.0000000000000000     
 -0.65350870999999999        1.0000000000000000     
 -0.64912274000000003        1.0000000000000000     
 -0.64473678000000001        1.0000000000000000     
 -0.64035081000000005        1.0000000000000000     
 -0.63596485000000003        1.0000000000000000     
 -0.63157887999999995        1.0000000000000000     
 -0.62719292000000004        1.0000000000000000     
 -0.62280694999999997        1.0000000000000000     
 -0.61842098999999995        1.0000000000000000     
 -0.61403501999999999        1.0000000000000000     
 -0.60964905999999996        1.0000000000000000     
 -0.60526310000000005        1.0000000000000000     
 -0.60087712999999998        1.0000000000000000     
 -0.59649116999999996        1.0000000000000000     
 -0.59210520000000000        1.0000000000000000     
 -0.58771923999999998        1.0000000000000000     
 -0.58333327000000001        1.0000000000000000     
 -0.57894730999999999        1.0000000000000000     
 -0.57456134000000003        1.0000000000000000     
 -0.57017538000000001        1.0000000000000000     
 -0.56578941000000005        1.0000000000000000     
 -0.56140345000000003        1.0000000000000000     
 -0.55701747999999995        1.0000000000000000     
 -0.55263152000000004        1.0000000000000000     
 -0.54824554999999997        1.0000000000000000     
 -0.54385958999999995        1.0000000000000000     
 -0.53947361999999999        1.0000000000000000     
 -0.53508765999999996        1.0000000000000000     
 -0.53070169000000000        1.0000000000000000     
 -0.52631572999999998        1.0000000000000000     
 -0.52192976000000002        1.0000000000000000     
 -0.51754380000000000        1.0000000000000000     
 -0.51315783999999998        1.0000000000000000     
 -0.50877187000000001        1.0000000000000000     
 -0.50438590999999999        1.0000000000000000     
 -0.49999993999999998        1.0000000000000000     
 -0.49561398000000001        1.0000000000000000     
 -0.49122800999999999        1.0000000000000000     
 -0.48684205000000003        1.0000000000000000     
 -0.48245609000000000        1.0000000000000000     
 -0.47807011999999999        1.0000000000000000     
 -0.47368416000000002        1.0000000000000000     
 -0.46929819000000000        1.0000000000000000     
 -0.46491222999999998        1.0000000000000000     
 -0.46052627000000002        1.0000000000000000     
 -0.45614030000000000        1.0000000000000000     
 -0.45175433999999998        1.0000000000000000     
 -0.44736838000000001        1.0000000000000000     
 -0.99999992000000004        1.0089200000000000     
 -0.99561396000000002        1.0089200000000000     
 -0.99122798999999995        1.0089200000000000     
 -0.98684203000000004        1.0089200000000000     
 -0.98245605999999996        1.0089200000000000     
 -0.97807010000000005        1.0089200000000000     
 -0.97368412999999998        1.0089200000000000     
 -0.96929816999999996        1.0089200000000000     
 -0.96491221000000005        1.0089200000000000     
 -0.96052623999999998        1.0089200000000000     
 -0.95614027999999995        1.0089200000000000     
 -0.95175430999999999        1.0089200000000000     
 -0.94736834999999997        1.0089200000000000     
 -0.94298238000000001        1.0089200000000000     
 -0.93859641999999999        1.0089200000000000     
 -0.93421045000000003        1.0089200000000000     
 -0.92982449000000000        1.0089200000000000     
 -0.92543852000000004        1.0089200000000000     
 -0.92105256000000002        1.0089200000000000     
 -0.91666658999999995        1.0089200000000000     
 -0.91228063000000004        1.0089200000000000     
 -0.90789465999999996        1.0089200000000000     
 -0.90350870000000005        1.0089200000000000     
 -0.89912272999999998        1.0089200000000000     
 -0.89473676999999996        1.0089200000000000     
 -0.89035080000000000        1.0089200000000000     
 -0.88596483999999998        1.0089200000000000     
 -0.88157887000000001        1.0089200000000000     
 -0.87719290999999999        1.0089200000000000     
 -0.87280694999999997        1.0089200000000000     
 -0.86842098000000001        1.0089200000000000     
 -0.86403501999999999        1.0089200000000000     
 -0.85964905000000003        1.0089200000000000     
 -0.85526309000000000        1.0089200000000000     
 -0.85087712000000004        1.0089200000000000     
 -0.84649116000000002        1.0089200000000000     
 -0.84210518999999995        1.0089200000000000     
 -0.83771923000000004        1.0089200000000000     
 -0.83333325999999996        1.0089200000000000     
 -0.82894730000000005        1.0089200000000000     
 -0.82456132999999998        1.0089200000000000     
 -0.82017536999999996        1.0089200000000000     
 -0.81578940000000000        1.0089200000000000     
 -0.81140343999999998        1.0089200000000000     
 -0.80701747000000001        1.0089200000000000     
 -0.80263150999999999        1.0089200000000000     
 -0.79824554000000003        1.0089200000000000     
 -0.79385958000000001        1.0089200000000000     
 -0.78947361000000005        1.0089200000000000     
 -0.78508765000000003        1.0089200000000000     
 -0.78070169000000000        1.0089200000000000     
 -0.77631572000000004        1.0089200000000000     
 -0.77192976000000002        1.0089200000000000     
 -0.76754378999999995        1.0089200000000000     
 -0.76315783000000004        1.0089200000000000     
 -0.75877185999999996        1.0089200000000000     
 -0.75438590000000005        1.0089200000000000     
 -0.74999992999999998        1.0089200000000000     
 -0.74561396999999996        1.0089200000000000     
 -0.74122800000000000        1.0089200000000000     
 -0.73684203999999998        1.0089200000000000     
 -0.73245607000000001        1.0089200000000000     
 -0.72807010999999999        1.0089200000000000     
 -0.72368414000000003        1.0089200000000000     
 -0.71929818000000001        1.0089200000000000     
 -0.71491221000000005        1.0089200000000000     
 -0.71052625000000003        1.0089200000000000     
 -0.70614027999999995        1.0089200000000000     
 -0.70175432000000004        1.0089200000000000     
 -0.69736836000000002        1.0089200000000000     
 -0.69298238999999995        1.0089200000000000     
 -0.68859643000000004        1.0089200000000000     
 -0.68421045999999996        1.0089200000000000     
 -0.67982450000000005        1.0089200000000000     
 -0.67543852999999998        1.0089200000000000     
 -0.67105256999999996        1.0089200000000000     
 -0.66666660000000000        1.0089200000000000     
 -0.66228063999999998        1.0089200000000000     
 -0.65789467000000001        1.0089200000000000     
 -0.65350870999999999        1.0089200000000000     
 -0.64912274000000003        1.0089200000000000     
 -0.64473678000000001        1.0089200000000000     
 -0.64035081000000005        1.0089200000000000     
 -0.63596485000000003        1.0089200000000000     
 -0.63157887999999995        1.0089200000000000     
 -0.62719292000000004        1.0089200000000000     
 -0.62280694999999997        1.0089200000000000     
 -0.61842098999999995        1.0089200000000000     
 -0.61403501999999999        1.0089200000000000     
 -0.60964905999999996        1.0089200000000000     
 -0.60526310000000005        1.0089200000000000     
 -0.60087712999999998        1.0089200000000000     
 -0.59649116999999996        1.0089200000000000     
 -0.59210520000000000        1.0089200000000000     
 -0.58771923999999998        1.0089200000000000     
 -0.58333327000000001        1.0089200000000000     
 -0.57894730999999999        1.0089200000000000     
 -0.57456134000000003        1.0089200000000000     
 -0.57017538000000001        1.0089200000000000     
 -0.56578941000000005        1.0089200000000000     
 -0.56140345000000003        1.0089200000000000     
 -0.55701747999999995        1.0089200000000000     
 -0.55263152000000004        1.0089200000000000     
 -0.54824554999999997        1.0089200000000000     
 -0.54385958999999995        1.0089200000000000     
 -0.53947361999999999        1.0089200000000000     
 -0.53508765999999996        1.0089200000000000     
 -0.53070169000000000        1.0089200000000000     
 -0.52631572999999998        1.0089200000000000     
 -0.52192976000000002        1.0089200000000000     
 -0.51754380000000000        1.0089200000000000     
 -0.51315783999999998        1.0089200000000000     
 -0.50877187000000001        1.0089200000000000     
 -0.50438590999999999        1.0089200000000000     
 -0.49999993999999998        1.0089200000000000     
 -0.49561398000000001        1.0089200000000000     
 -0.49122800999999999        1.0089200000000000     
 -0.48684205000000003        1.0089200000000000     
 -0.48245609000000000        1.0089200000000000     
 -0.47807011999999999        1.0089200000000000     
 -0.47368416000000002        1.0089200000000000     
 -0.46929819000000000        1.0089200000000000     
 -0.46491222999999998        1.0089200000000000     
 -0.46052627000000002        1.0089200000000000     
 -0.45614030000000000        1.0089200000000000     
 -0.45175433999999998        1.0089200000000000     
 -0.44736838000000001        1.0089200000000000     
 -0.99999992000000004        1.0178269000000000     
 -0.99561396000000002        1.0178269000000000     
 -0.99122798999999995        1.0178269000000000     
 -0.98684203000000004        1.0178269000000000     
 -0.98245605999999996        1.0178269000000000     
 -0.97807010000000005        1.0178269000000000     
 -0.97368412999999998        1.0178269000000000     
 -0.96929816999999996        1.0178269000000000     
 -0.96491221000000005        1.0178269000000000     
 -0.96052623999999998        1.0178269000000000     
 -0.95614027999999995        1.0178269000000000     
 -0.95175430999999999        1.0178269000000000     
 -0.94736834999999997        1.0178269000000000     
 -0.94298238000000001        1.0178269000000000     
 -0.93859641999999999        1.0178269000000000     
 -0.93421045000000003        1.0178269000000000     
 -0.92982449000000000        1.0178269000000000     
 -0.92543852000000004        1.0178269000000000     
 -0.92105256000000002        1.0178269000000000     
 -0.91666658999999995        1.0178269000000000     
 -0.91228063000000004        1.0178269000000000     
 -0.90789465999999996        1.0178269000000000     
 -0.90350870000000005        1.0178269000000000     
 -0.89912272999999998        1.0178269000000000     
 -0.89473676999999996        1.0178269000000000     
 -0.89035080000000000        1.0178269000000000     
 -0.88596483999999998        1.0178269000000000     
 -0.88157887000000001        1.0178269000000000     
 -0.87719290999999999        1.0178269000000000     
 -0.87280694999999997        1.0178269000000000     
 -0.86842098000000001        1.0178269000000000     
 -0.86403501999999999        1.0178269000000000     
 -0.85964905000000003        1.0178269000000000     
 -0.85526309000000000        1.0178269000000000     
 -0.85087712000000004        1.0178269000000000     
 -0.84649116000000002        1.0178269000000000     
 -0.84210518999999995        1.0178269000000000     
 -0.83771923000000004        1.0178269000000000     
 -0.83333325999999996        1.0178269000000000     
 -0.82894730000000005        1.0178269000000000     
 -0.82456132999999998        1.0178269000000000     
 -0.82017536999999996        1.0178269000000000     
 -0.81578940000000000        1.0178269000000000     
 -0.81140343999999998        1.0178269000000000     
 -0.80701747000000001        1.0178269000000000     
 -0.80263150999999999        1.0178269000000000     
 -0.79824554000000003        1.0178269000000000     
 -0.79385958000000001        1.0178269000000000     
 -0.78947361000000005        1.0178269000000000     
 -0.78508765000000003        1.0178269000000000     
 -0.78070169000000000        1.0178269000000000     
 -0.77631572000000004        1.0178269000000000     
 -0.77192976000000002        1.0178269000000000     
 -0.76754378999999995        1.0178269000000000     
 -0.76315783000000004        1.0178269000000000     
 -0.75877185999999996        1.0178269000000000     
 -0.75438590000000005        1.0178269000000000     
 -0.74999992999999998        1.0178269000000000     
 -0.74561396999999996        1.0178269000000000     
 -0.74122800000000000        1.0178269000000000     
 -0.73684203999999998        1.0178269000000000     
 -0.73245607000000001        1.0178269000000000     
 -0.72807010999999999        1.0178269000000000     
 -0.72368414000000003        1.0178269000000000     
 -0.71929818000000001        1.0178269000000000     
 -0.71491221000000005        1.0178269000000000     
 -0.71052625000000003        1.0178269000000000     
 -0.70614027999999995        1.0178269000000000     
 -0.70175432000000004        1.0178269000000000     
 -0.69736836000000002        1.0178269000000000     
 -0.69298238999999995        1.0178269000000000     
 -0.68859643000000004        1.0178269000000000     
 -0.68421045999999996        1.0178269000000000     
 -0.67982450000000005        1.0178269000000000     
 -0.67543852999999998        1.0178269000000000     
 -0.67105256999999996        1.0178269000000000     
 -0.66666660000000000        1.0178269000000000     
 -0.66228063999999998        1.0178269000000000     
 -0.65789467000000001        1.0178269000000000     
 -0.65350870999999999        1.0178269000000000     
 -0.64912274000000003        1.0178269000000000     
 -0.64473678000000001        1.0178269000000000     
 -0.64035081000000005        1.0178269000000000     
 -0.63596485000000003        1.0178269000000000     
 -0.63157887999999995        1.0178269000000000     
 -0.62719292000000004        1.0178269000000000     
 -0.62280694999999997        1.0178269000000000     
 -0.61842098999999995        1.0178269000000000     
 -0.61403501999999999        1.0178269000000000     
 -0.60964905999999996        1.0178269000000000     
 -0.60526310000000005        1.0178269000000000     
 -0.60087712999999998        1.0178269000000000     
 -0.59649116999999996        1.0178269000000000     
 -0.59210520000000000        1.0178269000000000     
 -0.58771923999999998        1.0178269000000000     
 -0.58333327000000001        1.0178269000000000     
 -0.57894730999999999        1.0178269000000000     
 -0.57456134000000003        1.0178269000000000     
 -0.57017538000000001        1.0178269000000000     
 -0.56578941000000005        1.0178269000000000     
 -0.56140345000000003        1.0178269000000000     
 -0.55701747999999995        1.0178269000000000     
 -0.55263152000000004        1.0178269000000000     
 -0.54824554999999997        1.0178269000000000     
 -0.54385958999999995        1.0178269000000000     
 -0.53947361999999999        1.0178269000000000     
 -0.53508765999999996        1.0178269000000000     
 -0.53070169000000000        1.0178269000000000     
 -0.52631572999999998        1.0178269000000000     
 -0.52192976000000002        1.0178269000000000     
 -0.51754380000000000        1.0178269000000000     
 -0.51315783999999998        1.0178269000000000     
 -0.50877187000000001        1.0178269000000000     
 -0.50438590999999999        1.0178269000000000     
 -0.49999993999999998        1.0178269000000000     
 -0.49561398000000001        1.0178269000000000     
 -0.49122800999999999        1.0178269000000000     
 -0.48684205000000003        1.0178269000000000     
 -0.48245609000000000        1.0178269000000000     
 -0.47807011999999999        1.0178269000000000     
 -0.47368416000000002        1.0178269000000000     
 -0.46929819000000000        1.0178269000000000     
 -0.46491222999999998        1.0178269000000000     
 -0.46052627000000002        1.0178269000000000     
 -0.45614030000000000        1.0178269000000000     
 -0.45175433999999998        1.0178269000000000     
 -0.44736838000000001        1.0178269000000000     
 -0.99999992000000004        1.0267207000000000     
 -0.99561396000000002        1.0267207000000000     
 -0.99122798999999995        1.0267207000000000     
 -0.98684203000000004        1.0267207000000000     
 -0.98245605999999996        1.0267207000000000     
 -0.97807010000000005        1.0267207000000000     
 -0.97368412999999998        1.0267207000000000     
 -0.96929816999999996        1.0267207000000000     
 -0.96491221000000005        1.0267207000000000     
 -0.96052623999999998        1.0267207000000000     
 -0.95614027999999995        1.0267207000000000     
 -0.95175430999999999        1.0267207000000000     
 -0.94736834999999997        1.0267207000000000     
 -0.94298238000000001        1.0267207000000000     
 -0.93859641999999999        1.0267207000000000     
 -0.93421045000000003        1.0267207000000000     
 -0.92982449000000000        1.0267207000000000     
 -0.92543852000000004        1.0267207000000000     
 -0.92105256000000002        1.0267207000000000     
 -0.91666658999999995        1.0267207000000000     
 -0.91228063000000004        1.0267207000000000     
 -0.90789465999999996        1.0267207000000000     
 -0.90350870000000005        1.0267207000000000     
 -0.89912272999999998        1.0267207000000000     
 -0.89473676999999996        1.0267207000000000     
 -0.89035080000000000        1.0267207000000000     
 -0.88596483999999998        1.0267207000000000     
 -0.88157887000000001        1.0267207000000000     
 -0.87719290999999999        1.0267207000000000     
 -0.87280694999999997        1.0267207000000000     
 -0.86842098000000001        1.0267207000000000     
 -0.86403501999999999        1.0267207000000000     
 -0.85964905000000003        1.0267207000000000     
 -0.85526309000000000        1.0267207000000000     
 -0.85087712000000004        1.0267207000000000     
 -0.84649116000000002        1.0267207000000000     
 -0.84210518999999995        1.0267207000000000     
 -0.83771923000000004        1.0267207000000000     
 -0.83333325999999996        1.0267207000000000     
 -0.82894730000000005        1.0267207000000000     
 -0.82456132999999998        1.0267207000000000     
 -0.82017536999999996        1.0267207000000000     
 -0.81578940000000000        1.0267207000000000     
 -0.81140343999999998        1.0267207000000000     
 -0.80701747000000001        1.0267207000000000     
 -0.80263150999999999        1.0267207000000000     
 -0.79824554000000003        1.0267207000000000     
 -0.79385958000000001        1.0267207000000000     
 -0.78947361000000005        1.0267207000000000     
 -0.78508765000000003        1.0267207000000000     
 -0.78070169000000000        1.0267207000000000     
 -0.77631572000000004        1.0267207000000000     
 -0.77192976000000002        1.0267207000000000     
 -0.76754378999999995        1.0267207000000000     
 -0.76315783000000004        1.0267207000000000     
 -0.75877185999999996        1.0267207000000000     
 -0.75438590000000005        1.0267207000000000     
 -0.74999992999999998        1.0267207000000000     
 -0.74561396999999996        1.0267207000000000     
 -0.74122800000000000        1.0267207000000000     
 -0.73684203999999998        1.0267207000000000     
 -0.73245607000000001        1.0267207000000000     
 -0.72807010999999999        1.0267207000000000     
 -0.72368414000000003        1.0267207000000000     
 -0.71929818000000001        1.0267207000000000     
 -0.71491221000000005        1.0267207000000000     
 -0.71052625000000003        1.0267207000000000     
 -0.70614027999999995        1.0267207000000000     
 -0.70175432000000004        1.0267207000000000     
 -0.69736836000000002        1.0267207000000000     
 -0.69298238999999995        1.0267207000000000     
 -0.68859643000000004        1.0267207000000000     
 -0.68421045999999996        1.0267207000000000     
 -0.67982450000000005        1.0267207000000000     
 -0.67543852999999998        1.0267207000000000     
 -0.67105256999999996        1.0267207000000000     
 -0.66666660000000000        1.0267207000000000     
 -0.66228063999999998        1.0267207000000000     
 -0.65789467000000001        1.0267207000000000     
 -0.65350870999999999        1.0267207000000000     
 -0.64912274000000003        1.0267207000000000     
 -0.64473678000000001        1.0267207000000000     
 -0.64035081000000005        1.0267207000000000     
 -0.63596485000000003        1.0267207000000000     
 -0.63157887999999995        1.0267207000000000     
 -0.62719292000000004        1.0267207000000000     
 -0.62280694999999997        1.0267207000000000     
 -0.61842098999999995        1.0267207000000000     
 -0.61403501999999999        1.0267207000000000     
 -0.60964905999999996        1.0267207000000000     
 -0.60526310000000005        1.0267207000000000     
 -0.60087712999999998        1.0267207000000000     
 -0.59649116999999996        1.0267207000000000     
 -0.59210520000000000        1.0267207000000000     
 -0.58771923999999998        1.0267207000000000     
 -0.58333327000000001        1.0267207000000000     
 -0.57894730999999999        1.0267207000000000     
 -0.57456134000000003        1.0267207000000000     
 -0.57017538000000001        1.0267207000000000     
 -0.56578941000000005        1.0267207000000000     
 -0.56140345000000003        1.0267207000000000     
 -0.55701747999999995        1.0267207000000000     
 -0.55263152000000004        1.0267207000000000     
 -0.54824554999999997        1.0267207000000000     
 -0.54385958999999995        1.0267207000000000     
 -0.53947361999999999        1.0267207000000000     
 -0.53508765999999996        1.0267207000000000     
 -0.53070169000000000        1.0267207000000000     
 -0.52631572999999998        1.0267207000000000     
 -0.52192976000000002        1.0267207000000000     
 -0.51754380000000000        1.0267207000000000     
 -0.51315783999999998        1.0267207000000000     
 -0.50877187000000001        1.0267207000000000     
 -0.50438590999999999        1.0267207000000000     
 -0.49999993999999998        1.0267207000000000     
 -0.49561398000000001        1.0267207000000000     
 -0.49122800999999999        1.0267207000000000     
 -0.48684205000000003        1.0267207000000000     
 -0.48245609000000000        1.0267207000000000     
 -0.47807011999999999        1.0267207000000000     
 -0.47368416000000002        1.0267207000000000     
 -0.46929819000000000        1.0267207000000000     
 -0.46491222999999998        1.0267207000000000     
 -0.46052627000000002        1.0267207000000000     
 -0.45614030000000000        1.0267207000000000     
 -0.45175433999999998        1.0267207000000000     
 -0.44736838000000001        1.0267207000000000     
 -0.99999992000000004        1.0356015000000001     
 -0.99561396000000002        1.0356015000000001     
 -0.99122798999999995        1.0356015000000001     
 -0.98684203000000004        1.0356015000000001     
 -0.98245605999999996        1.0356015000000001     
 -0.97807010000000005        1.0356015000000001     
 -0.97368412999999998        1.0356015000000001     
 -0.96929816999999996        1.0356015000000001     
 -0.96491221000000005        1.0356015000000001     
 -0.96052623999999998        1.0356015000000001     
 -0.95614027999999995        1.0356015000000001     
 -0.95175430999999999        1.0356015000000001     
 -0.94736834999999997        1.0356015000000001     
 -0.94298238000000001        1.0356015000000001     
 -0.93859641999999999        1.0356015000000001     
 -0.93421045000000003        1.0356015000000001     
 -0.92982449000000000        1.0356015000000001     
 -0.92543852000000004        1.0356015000000001     
 -0.92105256000000002        1.0356015000000001     
 -0.91666658999999995        1.0356015000000001     
 -0.91228063000000004        1.0356015000000001     
 -0.90789465999999996        1.0356015000000001     
 -0.90350870000000005        1.0356015000000001     
 -0.89912272999999998        1.0356015000000001     
 -0.89473676999999996        1.0356015000000001     
 -0.89035080000000000        1.0356015000000001     
 -0.88596483999999998        1.0356015000000001     
 -0.88157887000000001        1.0356015000000001     
 -0.87719290999999999        1.0356015000000001     
 -0.87280694999999997        1.0356015000000001     
 -0.86842098000000001        1.0356015000000001     
 -0.86403501999999999        1.0356015000000001     
 -0.85964905000000003        1.0356015000000001     
 -0.85526309000000000        1.0356015000000001     
 -0.85087712000000004        1.0356015000000001     
 -0.84649116000000002        1.0356015000000001     
 -0.84210518999999995        1.0356015000000001     
 -0.83771923000000004        1.0356015000000001     
 -0.83333325999999996        1.0356015000000001     
 -0.82894730000000005        1.0356015000000001     
 -0.82456132999999998        1.0356015000000001     
 -0.82017536999999996        1.0356015000000001     
 -0.81578940000000000        1.0356015000000001     
 -0.81140343999999998        1.0356015000000001     
 -0.80701747000000001        1.0356015000000001     
 -0.80263150999999999        1.0356015000000001     
 -0.79824554000000003        1.0356015000000001     
 -0.79385958000000001        1.0356015000000001     
 -0.78947361000000005        1.0356015000000001     
 -0.78508765000000003        1.0356015000000001     
 -0.78070169000000000        1.0356015000000001     
 -0.77631572000000004        1.0356015000000001     
 -0.77192976000000002        1.0356015000000001     
 -0.76754378999999995        1.0356015000000001     
 -0.76315783000000004        1.0356015000000001     
 -0.75877185999999996        1.0356015000000001     