 TITLE = "GRIDBLO_BC0008"
 VARIABLES = "X","Y"
ZONE I=   235,J=   127  ,DATAPACKING=POINT
  -3.0000000000000000       0.50000001000000005     
  -2.9955555999999999       0.50000001000000005     
  -2.9911110999999999       0.50000001000000005     
  -2.9866666999999998       0.50000001000000005     
  -2.9822221999999998       0.50000001000000005     
  -2.9777778000000001       0.50000001000000005     
  -2.9733333000000002       0.50000001000000005     
  -2.9688889000000001       0.50000001000000005     
  -2.9644444000000001       0.50000001000000005     
  -2.9600000000000000       0.50000001000000005     
  -2.9555555999999998       0.50000001000000005     
  -2.9511110999999999       0.50000001000000005     
  -2.9466667000000002       0.50000001000000005     
  -2.9422221999999998       0.50000001000000005     
  -2.9377778000000001       0.50000001000000005     
  -2.9333333000000001       0.50000001000000005     
  -2.9288889000000000       0.50000001000000005     
  -2.9244444000000001       0.50000001000000005     
  -2.9199999999999999       0.50000001000000005     
  -2.9155555999999998       0.50000001000000005     
  -2.9111110999999998       0.50000001000000005     
  -2.9066667000000002       0.50000001000000005     
  -2.9022222000000002       0.50000001000000005     
  -2.8977778000000001       0.50000001000000005     
  -2.8933333000000001       0.50000001000000005     
  -2.8888889000000000       0.50000001000000005     
  -2.8844444000000000       0.50000001000000005     
  -2.8799999999999999       0.50000001000000005     
  -2.8755556000000002       0.50000001000000005     
  -2.8711110999999998       0.50000001000000005     
  -2.8666667000000001       0.50000001000000005     
  -2.8622222000000002       0.50000001000000005     
  -2.8577778000000000       0.50000001000000005     
  -2.8533333000000001       0.50000001000000005     
  -2.8488888999999999       0.50000001000000005     
  -2.8444444000000000       0.50000001000000005     
  -2.8399999999999999       0.50000001000000005     
  -2.8355554999999999       0.50000001000000005     
  -2.8311111000000002       0.50000001000000005     
  -2.8266667000000001       0.50000001000000005     
  -2.8222222000000001       0.50000001000000005     
  -2.8177778000000000       0.50000001000000005     
  -2.8133333000000000       0.50000001000000005     
  -2.8088888999999999       0.50000001000000005     
  -2.8044443999999999       0.50000001000000005     
  -2.7999999999999998       0.50000001000000005     
  -2.7955554999999999       0.50000001000000005     
  -2.7911111000000002       0.50000001000000005     
  -2.7866667000000001       0.50000001000000005     
  -2.7822222000000001       0.50000001000000005     
  -2.7777778000000000       0.50000001000000005     
  -2.7733333000000000       0.50000001000000005     
  -2.7688888999999999       0.50000001000000005     
  -2.7644443999999999       0.50000001000000005     
  -2.7599999999999998       0.50000001000000005     
  -2.7555554999999998       0.50000001000000005     
  -2.7511111000000001       0.50000001000000005     
  -2.7466667000000000       0.50000001000000005     
  -2.7422222000000001       0.50000001000000005     
  -2.7377777999999999       0.50000001000000005     
  -2.7333333000000000       0.50000001000000005     
  -2.7288888999999998       0.50000001000000005     
  -2.7244443999999999       0.50000001000000005     
  -2.7200000000000002       0.50000001000000005     
  -2.7155554999999998       0.50000001000000005     
  -2.7111111000000001       0.50000001000000005     
  -2.7066667000000000       0.50000001000000005     
  -2.7022222000000000       0.50000001000000005     
  -2.6977777999999999       0.50000001000000005     
  -2.6933332999999999       0.50000001000000005     
  -2.6888888999999998       0.50000001000000005     
  -2.6844443999999998       0.50000001000000005     
  -2.6800000000000002       0.50000001000000005     
  -2.6755555000000002       0.50000001000000005     
  -2.6711111000000001       0.50000001000000005     
  -2.6666666999999999       0.50000001000000005     
  -2.6622222000000000       0.50000001000000005     
  -2.6577777999999999       0.50000001000000005     
  -2.6533332999999999       0.50000001000000005     
  -2.6488889000000002       0.50000001000000005     
  -2.6444443999999998       0.50000001000000005     
  -2.6400000000000001       0.50000001000000005     
  -2.6355555000000002       0.50000001000000005     
  -2.6311111000000000       0.50000001000000005     
  -2.6266666999999999       0.50000001000000005     
  -2.6222221999999999       0.50000001000000005     
  -2.6177777999999998       0.50000001000000005     
  -2.6133332999999999       0.50000001000000005     
  -2.6088889000000002       0.50000001000000005     
  -2.6044444000000002       0.50000001000000005     
  -2.6000000000000001       0.50000001000000005     
  -2.5955555000000001       0.50000001000000005     
  -2.5911111000000000       0.50000001000000005     
  -2.5866666999999999       0.50000001000000005     
  -2.5822221999999999       0.50000001000000005     
  -2.5777777999999998       0.50000001000000005     
  -2.5733332999999998       0.50000001000000005     
  -2.5688889000000001       0.50000001000000005     
  -2.5644444000000002       0.50000001000000005     
  -2.5600000000000001       0.50000001000000005     
  -2.5555555000000001       0.50000001000000005     
  -2.5511111000000000       0.50000001000000005     
  -2.5466666000000000       0.50000001000000005     
  -2.5422221999999999       0.50000001000000005     
  -2.5377778000000002       0.50000001000000005     
  -2.5333332999999998       0.50000001000000005     
  -2.5288889000000001       0.50000001000000005     
  -2.5244444000000001       0.50000001000000005     
  -2.5200000000000000       0.50000001000000005     
  -2.5155555000000001       0.50000001000000005     
  -2.5111110999999999       0.50000001000000005     
  -2.5066666000000000       0.50000001000000005     
  -2.5022221999999998       0.50000001000000005     
  -2.4977778000000002       0.50000001000000005     
  -2.4933333000000002       0.50000001000000005     
  -2.4888889000000001       0.50000001000000005     
  -2.4844444000000001       0.50000001000000005     
  -2.4800000000000000       0.50000001000000005     
  -2.4755555000000000       0.50000001000000005     
  -2.4711110999999999       0.50000001000000005     
  -2.4666665999999999       0.50000001000000005     
  -2.4622221999999998       0.50000001000000005     
  -2.4577778000000001       0.50000001000000005     
  -2.4533333000000002       0.50000001000000005     
  -2.4488889000000000       0.50000001000000005     
  -2.4444444000000001       0.50000001000000005     
  -2.4399999999999999       0.50000001000000005     
  -2.4355555000000000       0.50000001000000005     
  -2.4311110999999999       0.50000001000000005     
  -2.4266665999999999       0.50000001000000005     
  -2.4222222000000002       0.50000001000000005     
  -2.4177778000000001       0.50000001000000005     
  -2.4133333000000001       0.50000001000000005     
  -2.4088889000000000       0.50000001000000005     
  -2.4044444000000000       0.50000001000000005     
  -2.3999999999999999       0.50000001000000005     
  -2.3955554999999999       0.50000001000000005     
  -2.3911110999999998       0.50000001000000005     
  -2.3866665999999999       0.50000001000000005     
  -2.3822222000000002       0.50000001000000005     
  -2.3777778000000001       0.50000001000000005     
  -2.3733333000000001       0.50000001000000005     
  -2.3688889000000000       0.50000001000000005     
  -2.3644444000000000       0.50000001000000005     
  -2.3599999999999999       0.50000001000000005     
  -2.3555554999999999       0.50000001000000005     
  -2.3511110999999998       0.50000001000000005     
  -2.3466665999999998       0.50000001000000005     
  -2.3422222000000001       0.50000001000000005     
  -2.3377778000000000       0.50000001000000005     
  -2.3333333000000001       0.50000001000000005     
  -2.3288888999999999       0.50000001000000005     
  -2.3244444000000000       0.50000001000000005     
  -2.3199999999999998       0.50000001000000005     
  -2.3155554999999999       0.50000001000000005     
  -2.3111111000000002       0.50000001000000005     
  -2.3066665999999998       0.50000001000000005     
  -2.3022222000000001       0.50000001000000005     
  -2.2977778000000000       0.50000001000000005     
  -2.2933333000000000       0.50000001000000005     
  -2.2888888999999999       0.50000001000000005     
  -2.2844443999999999       0.50000001000000005     
  -2.2799999999999998       0.50000001000000005     
  -2.2755554999999998       0.50000001000000005     
  -2.2711111000000002       0.50000001000000005     
  -2.2666666000000002       0.50000001000000005     
  -2.2622222000000001       0.50000001000000005     
  -2.2577777000000001       0.50000001000000005     
  -2.2533333000000000       0.50000001000000005     
  -2.2488888999999999       0.50000001000000005     
  -2.2444443999999999       0.50000001000000005     
  -2.2400000000000002       0.50000001000000005     
  -2.2355554999999998       0.50000001000000005     
  -2.2311111000000001       0.50000001000000005     
  -2.2266666000000002       0.50000001000000005     
  -2.2222222000000000       0.50000001000000005     
  -2.2177777000000001       0.50000001000000005     
  -2.2133332999999999       0.50000001000000005     
  -2.2088888999999998       0.50000001000000005     
  -2.2044443999999999       0.50000001000000005     
  -2.2000000000000002       0.50000001000000005     
  -2.1955555000000002       0.50000001000000005     
  -2.1911111000000001       0.50000001000000005     
  -2.1866666000000001       0.50000001000000005     
  -2.1822222000000000       0.50000001000000005     
  -2.1777777000000000       0.50000001000000005     
  -2.1733332999999999       0.50000001000000005     
  -2.1688888999999998       0.50000001000000005     
  -2.1644443999999998       0.50000001000000005     
  -2.1600000000000001       0.50000001000000005     
  -2.1555555000000002       0.50000001000000005     
  -2.1511111000000001       0.50000001000000005     
  -2.1466666000000001       0.50000001000000005     
  -2.1422222000000000       0.50000001000000005     
  -2.1377777000000000       0.50000001000000005     
  -2.1333332999999999       0.50000001000000005     
  -2.1288889000000002       0.50000001000000005     
  -2.1244443999999998       0.50000001000000005     
  -2.1200000000000001       0.50000001000000005     
  -2.1155555000000001       0.50000001000000005     
  -2.1111111000000000       0.50000001000000005     
  -2.1066666000000001       0.50000001000000005     
  -2.1022221999999999       0.50000001000000005     
  -2.0977777000000000       0.50000001000000005     
  -2.0933332999999998       0.50000001000000005     
  -2.0888889000000002       0.50000001000000005     
  -2.0844444000000002       0.50000001000000005     
  -2.0800000000000001       0.50000001000000005     
  -2.0755555000000001       0.50000001000000005     
  -2.0711111000000000       0.50000001000000005     
  -2.0666666000000000       0.50000001000000005     
  -2.0622221999999999       0.50000001000000005     
  -2.0577776999999999       0.50000001000000005     
  -2.0533332999999998       0.50000001000000005     
  -2.0488889000000001       0.50000001000000005     
  -2.0444444000000002       0.50000001000000005     
  -2.0400000000000000       0.50000001000000005     
  -2.0355555000000001       0.50000001000000005     
  -2.0311110999999999       0.50000001000000005     
  -2.0266666000000000       0.50000001000000005     
  -2.0222221999999999       0.50000001000000005     
  -2.0177776999999999       0.50000001000000005     
  -2.0133333000000002       0.50000001000000005     
  -2.0088889000000001       0.50000001000000005     
  -2.0044444000000001       0.50000001000000005     
  -2.0000000000000000       0.50000001000000005     
  -1.9955555000000000       0.50000001000000005     
  -1.9911110999999999       0.50000001000000005     
  -1.9866665999999999       0.50000001000000005     
  -1.9822222000000000       0.50000001000000005     
  -1.9777777000000001       0.50000001000000005     
  -1.9733333000000000       0.50000001000000005     
  -1.9688888000000000       0.50000001000000005     
  -1.9644444000000001       0.50000001000000005     
  -1.9600000000000000       0.50000001000000005     
  -3.0000000000000000       0.50438598000000001     
  -2.9955555999999999       0.50438598000000001     
  -2.9911110999999999       0.50438598000000001     
  -2.9866666999999998       0.50438598000000001     
  -2.9822221999999998       0.50438598000000001     
  -2.9777778000000001       0.50438598000000001     
  -2.9733333000000002       0.50438598000000001     
  -2.9688889000000001       0.50438598000000001     
  -2.9644444000000001       0.50438598000000001     
  -2.9600000000000000       0.50438598000000001     
  -2.9555555999999998       0.50438598000000001     
  -2.9511110999999999       0.50438598000000001     
  -2.9466667000000002       0.50438598000000001     
  -2.9422221999999998       0.50438598000000001     
  -2.9377778000000001       0.50438598000000001     
  -2.9333333000000001       0.50438598000000001     
  -2.9288889000000000       0.50438598000000001     
  -2.9244444000000001       0.50438598000000001     
  -2.9199999999999999       0.50438598000000001     
  -2.9155555999999998       0.50438598000000001     
  -2.9111110999999998       0.50438598000000001     
  -2.9066667000000002       0.50438598000000001     
  -2.9022222000000002       0.50438598000000001     
  -2.8977778000000001       0.50438598000000001     
  -2.8933333000000001       0.50438598000000001     
  -2.8888889000000000       0.50438598000000001     
  -2.8844444000000000       0.50438598000000001     
  -2.8799999999999999       0.50438598000000001     
  -2.8755556000000002       0.50438598000000001     
  -2.8711110999999998       0.50438598000000001     
  -2.8666667000000001       0.50438598000000001     
  -2.8622222000000002       0.50438598000000001     
  -2.8577778000000000       0.50438598000000001     
  -2.8533333000000001       0.50438598000000001     
  -2.8488888999999999       0.50438598000000001     
  -2.8444444000000000       0.50438598000000001     
  -2.8399999999999999       0.50438598000000001     
  -2.8355554999999999       0.50438598000000001     
  -2.8311111000000002       0.50438598000000001     
  -2.8266667000000001       0.50438598000000001     
  -2.8222222000000001       0.50438598000000001     
  -2.8177778000000000       0.50438598000000001     
  -2.8133333000000000       0.50438598000000001     
  -2.8088888999999999       0.50438598000000001     
  -2.8044443999999999       0.50438598000000001     
  -2.7999999999999998       0.50438598000000001     
  -2.7955554999999999       0.50438598000000001     
  -2.7911111000000002       0.50438598000000001     
  -2.7866667000000001       0.50438598000000001     
  -2.7822222000000001       0.50438598000000001     
  -2.7777778000000000       0.50438598000000001     
  -2.7733333000000000       0.50438598000000001     
  -2.7688888999999999       0.50438598000000001     
  -2.7644443999999999       0.50438598000000001     
  -2.7599999999999998       0.50438598000000001     
  -2.7555554999999998       0.50438598000000001     
  -2.7511111000000001       0.50438598000000001     
  -2.7466667000000000       0.50438598000000001     
  -2.7422222000000001       0.50438598000000001     
  -2.7377777999999999       0.50438598000000001     
  -2.7333333000000000       0.50438598000000001     
  -2.7288888999999998       0.50438598000000001     
  -2.7244443999999999       0.50438598000000001     
  -2.7200000000000002       0.50438598000000001     
  -2.7155554999999998       0.50438598000000001     
  -2.7111111000000001       0.50438598000000001     
  -2.7066667000000000       0.50438598000000001     
  -2.7022222000000000       0.50438598000000001     
  -2.6977777999999999       0.50438598000000001     
  -2.6933332999999999       0.50438598000000001     
  -2.6888888999999998       0.50438598000000001     
  -2.6844443999999998       0.50438598000000001     
  -2.6800000000000002       0.50438598000000001     
  -2.6755555000000002       0.50438598000000001     
  -2.6711111000000001       0.50438598000000001     
  -2.6666666999999999       0.50438598000000001     
  -2.6622222000000000       0.50438598000000001     
  -2.6577777999999999       0.50438598000000001     
  -2.6533332999999999       0.50438598000000001     
  -2.6488889000000002       0.50438598000000001     
  -2.6444443999999998       0.50438598000000001     
  -2.6400000000000001       0.50438598000000001     
  -2.6355555000000002       0.50438598000000001     
  -2.6311111000000000       0.50438598000000001     
  -2.6266666999999999       0.50438598000000001     
  -2.6222221999999999       0.50438598000000001     
  -2.6177777999999998       0.50438598000000001     
  -2.6133332999999999       0.50438598000000001     
  -2.6088889000000002       0.50438598000000001     
  -2.6044444000000002       0.50438598000000001     
  -2.6000000000000001       0.50438598000000001     
  -2.5955555000000001       0.50438598000000001     
  -2.5911111000000000       0.50438598000000001     
  -2.5866666999999999       0.50438598000000001     
  -2.5822221999999999       0.50438598000000001     
  -2.5777777999999998       0.50438598000000001     
  -2.5733332999999998       0.50438598000000001     
  -2.5688889000000001       0.50438598000000001     
  -2.5644444000000002       0.50438598000000001     
  -2.5600000000000001       0.50438598000000001     
  -2.5555555000000001       0.50438598000000001     
  -2.5511111000000000       0.50438598000000001     
  -2.5466666000000000       0.50438598000000001     
  -2.5422221999999999       0.50438598000000001     
  -2.5377778000000002       0.50438598000000001     
  -2.5333332999999998       0.50438598000000001     
  -2.5288889000000001       0.50438598000000001     
  -2.5244444000000001       0.50438598000000001     
  -2.5200000000000000       0.50438598000000001     
  -2.5155555000000001       0.50438598000000001     
  -2.5111110999999999       0.50438598000000001     
  -2.5066666000000000       0.50438598000000001     
  -2.5022221999999998       0.50438598000000001     
  -2.4977778000000002       0.50438598000000001     
  -2.4933333000000002       0.50438598000000001     
  -2.4888889000000001       0.50438598000000001     
  -2.4844444000000001       0.50438598000000001     
  -2.4800000000000000       0.50438598000000001     
  -2.4755555000000000       0.50438598000000001     
  -2.4711110999999999       0.50438598000000001     
  -2.4666665999999999       0.50438598000000001     
  -2.4622221999999998       0.50438598000000001     
  -2.4577778000000001       0.50438598000000001     
  -2.4533333000000002       0.50438598000000001     
  -2.4488889000000000       0.50438598000000001     
  -2.4444444000000001       0.50438598000000001     
  -2.4399999999999999       0.50438598000000001     
  -2.4355555000000000       0.50438598000000001     
  -2.4311110999999999       0.50438598000000001     
  -2.4266665999999999       0.50438598000000001     
  -2.4222222000000002       0.50438598000000001     
  -2.4177778000000001       0.50438598000000001     
  -2.4133333000000001       0.50438598000000001     
  -2.4088889000000000       0.50438598000000001     
  -2.4044444000000000       0.50438598000000001     
  -2.3999999999999999       0.50438598000000001     
  -2.3955554999999999       0.50438598000000001     
  -2.3911110999999998       0.50438598000000001     
  -2.3866665999999999       0.50438598000000001     
  -2.3822222000000002       0.50438598000000001     
  -2.3777778000000001       0.50438598000000001     
  -2.3733333000000001       0.50438598000000001     
  -2.3688889000000000       0.50438598000000001     
  -2.3644444000000000       0.50438598000000001     
  -2.3599999999999999       0.50438598000000001     
  -2.3555554999999999       0.50438598000000001     
  -2.3511110999999998       0.50438598000000001     
  -2.3466665999999998       0.50438598000000001     
  -2.3422222000000001       0.50438598000000001     
  -2.3377778000000000       0.50438598000000001     
  -2.3333333000000001       0.50438598000000001     
  -2.3288888999999999       0.50438598000000001     
  -2.3244444000000000       0.50438598000000001     
  -2.3199999999999998       0.50438598000000001     
  -2.3155554999999999       0.50438598000000001     
  -2.3111111000000002       0.50438598000000001     
  -2.3066665999999998       0.50438598000000001     
  -2.3022222000000001       0.50438598000000001     
  -2.2977778000000000       0.50438598000000001     
  -2.2933333000000000       0.50438598000000001     
  -2.2888888999999999       0.50438598000000001     
  -2.2844443999999999       0.50438598000000001     
  -2.2799999999999998       0.50438598000000001     
  -2.2755554999999998       0.50438598000000001     
  -2.2711111000000002       0.50438598000000001     
  -2.2666666000000002       0.50438598000000001     
  -2.2622222000000001       0.50438598000000001     
  -2.2577777000000001       0.50438598000000001     
  -2.2533333000000000       0.50438598000000001     
  -2.2488888999999999       0.50438598000000001     
  -2.2444443999999999       0.50438598000000001     
  -2.2400000000000002       0.50438598000000001     
  -2.2355554999999998       0.50438598000000001     
  -2.2311111000000001       0.50438598000000001     
  -2.2266666000000002       0.50438598000000001     
  -2.2222222000000000       0.50438598000000001     
  -2.2177777000000001       0.50438598000000001     
  -2.2133332999999999       0.50438598000000001     
  -2.2088888999999998       0.50438598000000001     
  -2.2044443999999999       0.50438598000000001     
  -2.2000000000000002       0.50438598000000001     
  -2.1955555000000002       0.50438598000000001     
  -2.1911111000000001       0.50438598000000001     
  -2.1866666000000001       0.50438598000000001     
  -2.1822222000000000       0.50438598000000001     
  -2.1777777000000000       0.50438598000000001     
  -2.1733332999999999       0.50438598000000001     
  -2.1688888999999998       0.50438598000000001     
  -2.1644443999999998       0.50438598000000001     
  -2.1600000000000001       0.50438598000000001     
  -2.1555555000000002       0.50438598000000001     
  -2.1511111000000001       0.50438598000000001     
  -2.1466666000000001       0.50438598000000001     
  -2.1422222000000000       0.50438598000000001     
  -2.1377777000000000       0.50438598000000001     
  -2.1333332999999999       0.50438598000000001     
  -2.1288889000000002       0.50438598000000001     
  -2.1244443999999998       0.50438598000000001     
  -2.1200000000000001       0.50438598000000001     
  -2.1155555000000001       0.50438598000000001     
  -2.1111111000000000       0.50438598000000001     
  -2.1066666000000001       0.50438598000000001     
  -2.1022221999999999       0.50438598000000001     
  -2.0977777000000000       0.50438598000000001     
  -2.0933332999999998       0.50438598000000001     
  -2.0888889000000002       0.50438598000000001     
  -2.0844444000000002       0.50438598000000001     
  -2.0800000000000001       0.50438598000000001     
  -2.0755555000000001       0.50438598000000001     
  -2.0711111000000000       0.50438598000000001     
  -2.0666666000000000       0.50438598000000001     
  -2.0622221999999999       0.50438598000000001     
  -2.0577776999999999       0.50438598000000001     
  -2.0533332999999998       0.50438598000000001     
  -2.0488889000000001       0.50438598000000001     
  -2.0444444000000002       0.50438598000000001     
  -2.0400000000000000       0.50438598000000001     
  -2.0355555000000001       0.50438598000000001     
  -2.0311110999999999       0.50438598000000001     
  -2.0266666000000000       0.50438598000000001     
  -2.0222221999999999       0.50438598000000001     
  -2.0177776999999999       0.50438598000000001     
  -2.0133333000000002       0.50438598000000001     
  -2.0088889000000001       0.50438598000000001     
  -2.0044444000000001       0.50438598000000001     
  -2.0000000000000000       0.50438598000000001     
  -1.9955555000000000       0.50438598000000001     
  -1.9911110999999999       0.50438598000000001     
  -1.9866665999999999       0.50438598000000001     
  -1.9822222000000000       0.50438598000000001     
  -1.9777777000000001       0.50438598000000001     
  -1.9733333000000000       0.50438598000000001     
  -1.9688888000000000       0.50438598000000001     
  -1.9644444000000001       0.50438598000000001     
  -1.9600000000000000       0.50438598000000001     
  -3.0000000000000000       0.50877194000000003     
  -2.9955555999999999       0.50877194000000003     
  -2.9911110999999999       0.50877194000000003     
  -2.9866666999999998       0.50877194000000003     
  -2.9822221999999998       0.50877194000000003     
  -2.9777778000000001       0.50877194000000003     
  -2.9733333000000002       0.50877194000000003     
  -2.9688889000000001       0.50877194000000003     
  -2.9644444000000001       0.50877194000000003     
  -2.9600000000000000       0.50877194000000003     
  -2.9555555999999998       0.50877194000000003     
  -2.9511110999999999       0.50877194000000003     
  -2.9466667000000002       0.50877194000000003     
  -2.9422221999999998       0.50877194000000003     
  -2.9377778000000001       0.50877194000000003     
  -2.9333333000000001       0.50877194000000003     
  -2.9288889000000000       0.50877194000000003     
  -2.9244444000000001       0.50877194000000003     
  -2.9199999999999999       0.50877194000000003     
  -2.9155555999999998       0.50877194000000003     
  -2.9111110999999998       0.50877194000000003     
  -2.9066667000000002       0.50877194000000003     
  -2.9022222000000002       0.50877194000000003     
  -2.8977778000000001       0.50877194000000003     
  -2.8933333000000001       0.50877194000000003     
  -2.8888889000000000       0.50877194000000003     
  -2.8844444000000000       0.50877194000000003     
  -2.8799999999999999       0.50877194000000003     
  -2.8755556000000002       0.50877194000000003     
  -2.8711110999999998       0.50877194000000003     
  -2.8666667000000001       0.50877194000000003     
  -2.8622222000000002       0.50877194000000003     
  -2.8577778000000000       0.50877194000000003     
  -2.8533333000000001       0.50877194000000003     
  -2.8488888999999999       0.50877194000000003     
  -2.8444444000000000       0.50877194000000003     
  -2.8399999999999999       0.50877194000000003     
  -2.8355554999999999       0.50877194000000003     
  -2.8311111000000002       0.50877194000000003     
  -2.8266667000000001       0.50877194000000003     
  -2.8222222000000001       0.50877194000000003     
  -2.8177778000000000       0.50877194000000003     
  -2.8133333000000000       0.50877194000000003     
  -2.8088888999999999       0.50877194000000003     
  -2.8044443999999999       0.50877194000000003     
  -2.7999999999999998       0.50877194000000003     
  -2.7955554999999999       0.50877194000000003     
  -2.7911111000000002       0.50877194000000003     
  -2.7866667000000001       0.50877194000000003     
  -2.7822222000000001       0.50877194000000003     
  -2.7777778000000000       0.50877194000000003     
  -2.7733333000000000       0.50877194000000003     
  -2.7688888999999999       0.50877194000000003     
  -2.7644443999999999       0.50877194000000003     
  -2.7599999999999998       0.50877194000000003     
  -2.7555554999999998       0.50877194000000003     
  -2.7511111000000001       0.50877194000000003     
  -2.7466667000000000       0.50877194000000003     
  -2.7422222000000001       0.50877194000000003     
  -2.7377777999999999       0.50877194000000003     
  -2.7333333000000000       0.50877194000000003     
  -2.7288888999999998       0.50877194000000003     
  -2.7244443999999999       0.50877194000000003     
  -2.7200000000000002       0.50877194000000003     
  -2.7155554999999998       0.50877194000000003     
  -2.7111111000000001       0.50877194000000003     
  -2.7066667000000000       0.50877194000000003     
  -2.7022222000000000       0.50877194000000003     
  -2.6977777999999999       0.50877194000000003     
  -2.6933332999999999       0.50877194000000003     
  -2.6888888999999998       0.50877194000000003     
  -2.6844443999999998       0.50877194000000003     
  -2.6800000000000002       0.50877194000000003     
  -2.6755555000000002       0.50877194000000003     
  -2.6711111000000001       0.50877194000000003     
  -2.6666666999999999       0.50877194000000003     
  -2.6622222000000000       0.50877194000000003     
  -2.6577777999999999       0.50877194000000003     
  -2.6533332999999999       0.50877194000000003     
  -2.6488889000000002       0.50877194000000003     
  -2.6444443999999998       0.50877194000000003     
  -2.6400000000000001       0.50877194000000003     
  -2.6355555000000002       0.50877194000000003     
  -2.6311111000000000       0.50877194000000003     
  -2.6266666999999999       0.50877194000000003     
  -2.6222221999999999       0.50877194000000003     
  -2.6177777999999998       0.50877194000000003     
  -2.6133332999999999       0.50877194000000003     
  -2.6088889000000002       0.50877194000000003     
  -2.6044444000000002       0.50877194000000003     
  -2.6000000000000001       0.50877194000000003     
  -2.5955555000000001       0.50877194000000003     
  -2.5911111000000000       0.50877194000000003     
  -2.5866666999999999       0.50877194000000003     