 TITLE = "GRIDBLO_BC0021"
 VARIABLES = "X","Y"
ZONE I=   121,J=   141  ,DATAPACKING=POINT
  -1.9866665999999999        1.0000000000000000     
  -1.9822222000000000        1.0000000000000000     
  -1.9777777000000001        1.0000000000000000     
  -1.9733333000000000        1.0000000000000000     
  -1.9688888000000000        1.0000000000000000     
  -1.9644444000000001        1.0000000000000000     
  -1.9600000000000000        1.0000000000000000     
  -1.9555555000000000        1.0000000000000000     
  -1.9511111000000001        1.0000000000000000     
  -1.9466665999999999        1.0000000000000000     
  -1.9422222000000000        1.0000000000000000     
  -1.9377777000000000        1.0000000000000000     
  -1.9333332999999999        1.0000000000000000     
  -1.9288888000000000        1.0000000000000000     
  -1.9244444000000001        1.0000000000000000     
  -1.9199999999999999        1.0000000000000000     
  -1.9155555000000000        1.0000000000000000     
  -1.9111111000000001        1.0000000000000000     
  -1.9066666000000001        1.0000000000000000     
  -1.9022222000000000        1.0000000000000000     
  -1.8977777000000000        1.0000000000000000     
  -1.8933333000000001        1.0000000000000000     
  -1.8888887999999999        1.0000000000000000     
  -1.8844444000000000        1.0000000000000000     
  -1.8799999999999999        1.0000000000000000     
  -1.8755554999999999        1.0000000000000000     
  -1.8711111000000000        1.0000000000000000     
  -1.8666666000000001        1.0000000000000000     
  -1.8622221999999999        1.0000000000000000     
  -1.8577777000000000        1.0000000000000000     
  -1.8533333000000001        1.0000000000000000     
  -1.8488888000000001        1.0000000000000000     
  -1.8444444000000000        1.0000000000000000     
  -1.8400000000000001        1.0000000000000000     
  -1.8355554999999999        1.0000000000000000     
  -1.8311111000000000        1.0000000000000000     
  -1.8266666000000000        1.0000000000000000     
  -1.8222221999999999        1.0000000000000000     
  -1.8177776999999999        1.0000000000000000     
  -1.8133333000000000        1.0000000000000000     
  -1.8088888000000001        1.0000000000000000     
  -1.8044443999999999        1.0000000000000000     
  -1.8000000000000000        1.0000000000000000     
  -1.7955555000000001        1.0000000000000000     
  -1.7911111000000000        1.0000000000000000     
  -1.7866666000000000        1.0000000000000000     
  -1.7822222000000001        1.0000000000000000     
  -1.7777776999999999        1.0000000000000000     
  -1.7733333000000000        1.0000000000000000     
  -1.7688888000000000        1.0000000000000000     
  -1.7644443999999999        1.0000000000000000     
  -1.7600000000000000        1.0000000000000000     
  -1.7555555000000000        1.0000000000000000     
  -1.7511110999999999        1.0000000000000000     
  -1.7466666000000000        1.0000000000000000     
  -1.7422222000000001        1.0000000000000000     
  -1.7377777000000001        1.0000000000000000     
  -1.7333333000000000        1.0000000000000000     
  -1.7288888000000000        1.0000000000000000     
  -1.7244444000000001        1.0000000000000000     
  -1.7200000000000000        1.0000000000000000     
  -1.7155555000000000        1.0000000000000000     
  -1.7111111000000001        1.0000000000000000     
  -1.7066665999999999        1.0000000000000000     
  -1.7022222000000000        1.0000000000000000     
  -1.6977777000000001        1.0000000000000000     
  -1.6933332999999999        1.0000000000000000     
  -1.6888888000000000        1.0000000000000000     
  -1.6844444000000001        1.0000000000000000     
  -1.6799999000000001        1.0000000000000000     
  -1.6755555000000000        1.0000000000000000     
  -1.6711111000000001        1.0000000000000000     
  -1.6666666000000001        1.0000000000000000     
  -1.6622222000000000        1.0000000000000000     
  -1.6577777000000000        1.0000000000000000     
  -1.6533332999999999        1.0000000000000000     
  -1.6488887999999999        1.0000000000000000     
  -1.6444444000000000        1.0000000000000000     
  -1.6399999000000001        1.0000000000000000     
  -1.6355554999999999        1.0000000000000000     
  -1.6311111000000000        1.0000000000000000     
  -1.6266666000000001        1.0000000000000000     
  -1.6222221999999999        1.0000000000000000     
  -1.6177777000000000        1.0000000000000000     
  -1.6133333000000001        1.0000000000000000     
  -1.6088887999999999        1.0000000000000000     
  -1.6044444000000000        1.0000000000000000     
  -1.5999999000000000        1.0000000000000000     
  -1.5955554999999999        1.0000000000000000     
  -1.5911111000000000        1.0000000000000000     
  -1.5866666000000000        1.0000000000000000     
  -1.5822221999999999        1.0000000000000000     
  -1.5777776999999999        1.0000000000000000     
  -1.5733333000000000        1.0000000000000000     
  -1.5688888000000001        1.0000000000000000     
  -1.5644444000000000        1.0000000000000000     
  -1.5599999000000000        1.0000000000000000     
  -1.5555555000000001        1.0000000000000000     
  -1.5511111000000000        1.0000000000000000     
  -1.5466666000000000        1.0000000000000000     
  -1.5422222000000001        1.0000000000000000     
  -1.5377776999999999        1.0000000000000000     
  -1.5333333000000000        1.0000000000000000     
  -1.5288888000000000        1.0000000000000000     
  -1.5244443999999999        1.0000000000000000     
  -1.5199999000000000        1.0000000000000000     
  -1.5155555000000001        1.0000000000000000     
  -1.5111110999999999        1.0000000000000000     
  -1.5066666000000000        1.0000000000000000     
  -1.5022222000000001        1.0000000000000000     
  -1.4977777000000001        1.0000000000000000     
  -1.4933333000000000        1.0000000000000000     
  -1.4888888000000000        1.0000000000000000     
  -1.4844444000000001        1.0000000000000000     
  -1.4799998999999999        1.0000000000000000     
  -1.4755555000000000        1.0000000000000000     
  -1.4711110999999999        1.0000000000000000     
  -1.4666665999999999        1.0000000000000000     
  -1.4622222000000000        1.0000000000000000     
  -1.4577777000000001        1.0000000000000000     
  -1.4533332999999999        1.0000000000000000     
  -1.9866665999999999        1.0089200000000000     
  -1.9822222000000000        1.0089200000000000     
  -1.9777777000000001        1.0089200000000000     
  -1.9733333000000000        1.0089200000000000     
  -1.9688888000000000        1.0089200000000000     
  -1.9644444000000001        1.0089200000000000     
  -1.9600000000000000        1.0089200000000000     
  -1.9555555000000000        1.0089200000000000     
  -1.9511111000000001        1.0089200000000000     
  -1.9466665999999999        1.0089200000000000     
  -1.9422222000000000        1.0089200000000000     
  -1.9377777000000000        1.0089200000000000     
  -1.9333332999999999        1.0089200000000000     
  -1.9288888000000000        1.0089200000000000     
  -1.9244444000000001        1.0089200000000000     
  -1.9199999999999999        1.0089200000000000     
  -1.9155555000000000        1.0089200000000000     
  -1.9111111000000001        1.0089200000000000     
  -1.9066666000000001        1.0089200000000000     
  -1.9022222000000000        1.0089200000000000     
  -1.8977777000000000        1.0089200000000000     
  -1.8933333000000001        1.0089200000000000     
  -1.8888887999999999        1.0089200000000000     
  -1.8844444000000000        1.0089200000000000     
  -1.8799999999999999        1.0089200000000000     
  -1.8755554999999999        1.0089200000000000     
  -1.8711111000000000        1.0089200000000000     
  -1.8666666000000001        1.0089200000000000     
  -1.8622221999999999        1.0089200000000000     
  -1.8577777000000000        1.0089200000000000     
  -1.8533333000000001        1.0089200000000000     
  -1.8488888000000001        1.0089200000000000     
  -1.8444444000000000        1.0089200000000000     
  -1.8400000000000001        1.0089200000000000     
  -1.8355554999999999        1.0089200000000000     
  -1.8311111000000000        1.0089200000000000     
  -1.8266666000000000        1.0089200000000000     
  -1.8222221999999999        1.0089200000000000     
  -1.8177776999999999        1.0089200000000000     
  -1.8133333000000000        1.0089200000000000     
  -1.8088888000000001        1.0089200000000000     
  -1.8044443999999999        1.0089200000000000     
  -1.8000000000000000        1.0089200000000000     
  -1.7955555000000001        1.0089200000000000     
  -1.7911111000000000        1.0089200000000000     
  -1.7866666000000000        1.0089200000000000     
  -1.7822222000000001        1.0089200000000000     
  -1.7777776999999999        1.0089200000000000     
  -1.7733333000000000        1.0089200000000000     
  -1.7688888000000000        1.0089200000000000     
  -1.7644443999999999        1.0089200000000000     
  -1.7600000000000000        1.0089200000000000     
  -1.7555555000000000        1.0089200000000000     
  -1.7511110999999999        1.0089200000000000     
  -1.7466666000000000        1.0089200000000000     
  -1.7422222000000001        1.0089200000000000     
  -1.7377777000000001        1.0089200000000000     
  -1.7333333000000000        1.0089200000000000     
  -1.7288888000000000        1.0089200000000000     
  -1.7244444000000001        1.0089200000000000     
  -1.7200000000000000        1.0089200000000000     
  -1.7155555000000000        1.0089200000000000     
  -1.7111111000000001        1.0089200000000000     
  -1.7066665999999999        1.0089200000000000     
  -1.7022222000000000        1.0089200000000000     
  -1.6977777000000001        1.0089200000000000     
  -1.6933332999999999        1.0089200000000000     
  -1.6888888000000000        1.0089200000000000     
  -1.6844444000000001        1.0089200000000000     
  -1.6799999000000001        1.0089200000000000     
  -1.6755555000000000        1.0089200000000000     
  -1.6711111000000001        1.0089200000000000     
  -1.6666666000000001        1.0089200000000000     
  -1.6622222000000000        1.0089200000000000     
  -1.6577777000000000        1.0089200000000000     
  -1.6533332999999999        1.0089200000000000     
  -1.6488887999999999        1.0089200000000000     
  -1.6444444000000000        1.0089200000000000     
  -1.6399999000000001        1.0089200000000000     
  -1.6355554999999999        1.0089200000000000     
  -1.6311111000000000        1.0089200000000000     
  -1.6266666000000001        1.0089200000000000     
  -1.6222221999999999        1.0089200000000000     
  -1.6177777000000000        1.0089200000000000     
  -1.6133333000000001        1.0089200000000000     
  -1.6088887999999999        1.0089200000000000     
  -1.6044444000000000        1.0089200000000000     
  -1.5999999000000000        1.0089200000000000     
  -1.5955554999999999        1.0089200000000000     
  -1.5911111000000000        1.0089200000000000     
  -1.5866666000000000        1.0089200000000000     
  -1.5822221999999999        1.0089200000000000     
  -1.5777776999999999        1.0089200000000000     
  -1.5733333000000000        1.0089200000000000     
  -1.5688888000000001        1.0089200000000000     
  -1.5644444000000000        1.0089200000000000     
  -1.5599999000000000        1.0089200000000000     
  -1.5555555000000001        1.0089200000000000     
  -1.5511111000000000        1.0089200000000000     
  -1.5466666000000000        1.0089200000000000     
  -1.5422222000000001        1.0089200000000000     
  -1.5377776999999999        1.0089200000000000     
  -1.5333333000000000        1.0089200000000000     
  -1.5288888000000000        1.0089200000000000     
  -1.5244443999999999        1.0089200000000000     
  -1.5199999000000000        1.0089200000000000     
  -1.5155555000000001        1.0089200000000000     
  -1.5111110999999999        1.0089200000000000     
  -1.5066666000000000        1.0089200000000000     
  -1.5022222000000001        1.0089200000000000     
  -1.4977777000000001        1.0089200000000000     
  -1.4933333000000000        1.0089200000000000     
  -1.4888888000000000        1.0089200000000000     
  -1.4844444000000001        1.0089200000000000     
  -1.4799998999999999        1.0089200000000000     
  -1.4755555000000000        1.0089200000000000     
  -1.4711110999999999        1.0089200000000000     
  -1.4666665999999999        1.0089200000000000     
  -1.4622222000000000        1.0089200000000000     
  -1.4577777000000001        1.0089200000000000     
  -1.4533332999999999        1.0089200000000000     
  -1.9866665999999999        1.0178269000000000     
  -1.9822222000000000        1.0178269000000000     
  -1.9777777000000001        1.0178269000000000     
  -1.9733333000000000        1.0178269000000000     
  -1.9688888000000000        1.0178269000000000     
  -1.9644444000000001        1.0178269000000000     
  -1.9600000000000000        1.0178269000000000     
  -1.9555555000000000        1.0178269000000000     
  -1.9511111000000001        1.0178269000000000     
  -1.9466665999999999        1.0178269000000000     
  -1.9422222000000000        1.0178269000000000     
  -1.9377777000000000        1.0178269000000000     
  -1.9333332999999999        1.0178269000000000     
  -1.9288888000000000        1.0178269000000000     
  -1.9244444000000001        1.0178269000000000     
  -1.9199999999999999        1.0178269000000000     
  -1.9155555000000000        1.0178269000000000     
  -1.9111111000000001        1.0178269000000000     
  -1.9066666000000001        1.0178269000000000     
  -1.9022222000000000        1.0178269000000000     
  -1.8977777000000000        1.0178269000000000     
  -1.8933333000000001        1.0178269000000000     
  -1.8888887999999999        1.0178269000000000     
  -1.8844444000000000        1.0178269000000000     
  -1.8799999999999999        1.0178269000000000     
  -1.8755554999999999        1.0178269000000000     
  -1.8711111000000000        1.0178269000000000     
  -1.8666666000000001        1.0178269000000000     
  -1.8622221999999999        1.0178269000000000     
  -1.8577777000000000        1.0178269000000000     
  -1.8533333000000001        1.0178269000000000     
  -1.8488888000000001        1.0178269000000000     
  -1.8444444000000000        1.0178269000000000     
  -1.8400000000000001        1.0178269000000000     
  -1.8355554999999999        1.0178269000000000     
  -1.8311111000000000        1.0178269000000000     
  -1.8266666000000000        1.0178269000000000     
  -1.8222221999999999        1.0178269000000000     
  -1.8177776999999999        1.0178269000000000     
  -1.8133333000000000        1.0178269000000000     
  -1.8088888000000001        1.0178269000000000     
  -1.8044443999999999        1.0178269000000000     
  -1.8000000000000000        1.0178269000000000     
  -1.7955555000000001        1.0178269000000000     
  -1.7911111000000000        1.0178269000000000     
  -1.7866666000000000        1.0178269000000000     
  -1.7822222000000001        1.0178269000000000     
  -1.7777776999999999        1.0178269000000000     
  -1.7733333000000000        1.0178269000000000     
  -1.7688888000000000        1.0178269000000000     
  -1.7644443999999999        1.0178269000000000     
  -1.7600000000000000        1.0178269000000000     
  -1.7555555000000000        1.0178269000000000     
  -1.7511110999999999        1.0178269000000000     
  -1.7466666000000000        1.0178269000000000     
  -1.7422222000000001        1.0178269000000000     
  -1.7377777000000001        1.0178269000000000     
  -1.7333333000000000        1.0178269000000000     
  -1.7288888000000000        1.0178269000000000     
  -1.7244444000000001        1.0178269000000000     
  -1.7200000000000000        1.0178269000000000     
  -1.7155555000000000        1.0178269000000000     
  -1.7111111000000001        1.0178269000000000     
  -1.7066665999999999        1.0178269000000000     
  -1.7022222000000000        1.0178269000000000     
  -1.6977777000000001        1.0178269000000000     
  -1.6933332999999999        1.0178269000000000     
  -1.6888888000000000        1.0178269000000000     
  -1.6844444000000001        1.0178269000000000     
  -1.6799999000000001        1.0178269000000000     
  -1.6755555000000000        1.0178269000000000     
  -1.6711111000000001        1.0178269000000000     
  -1.6666666000000001        1.0178269000000000     
  -1.6622222000000000        1.0178269000000000     
  -1.6577777000000000        1.0178269000000000     
  -1.6533332999999999        1.0178269000000000     
  -1.6488887999999999        1.0178269000000000     
  -1.6444444000000000        1.0178269000000000     
  -1.6399999000000001        1.0178269000000000     
  -1.6355554999999999        1.0178269000000000     
  -1.6311111000000000        1.0178269000000000     
  -1.6266666000000001        1.0178269000000000     
  -1.6222221999999999        1.0178269000000000     
  -1.6177777000000000        1.0178269000000000     
  -1.6133333000000001        1.0178269000000000     
  -1.6088887999999999        1.0178269000000000     
  -1.6044444000000000        1.0178269000000000     
  -1.5999999000000000        1.0178269000000000     
  -1.5955554999999999        1.0178269000000000     
  -1.5911111000000000        1.0178269000000000     
  -1.5866666000000000        1.0178269000000000     
  -1.5822221999999999        1.0178269000000000     
  -1.5777776999999999        1.0178269000000000     
  -1.5733333000000000        1.0178269000000000     
  -1.5688888000000001        1.0178269000000000     
  -1.5644444000000000        1.0178269000000000     
  -1.5599999000000000        1.0178269000000000     
  -1.5555555000000001        1.0178269000000000     
  -1.5511111000000000        1.0178269000000000     
  -1.5466666000000000        1.0178269000000000     
  -1.5422222000000001        1.0178269000000000     
  -1.5377776999999999        1.0178269000000000     
  -1.5333333000000000        1.0178269000000000     
  -1.5288888000000000        1.0178269000000000     
  -1.5244443999999999        1.0178269000000000     
  -1.5199999000000000        1.0178269000000000     
  -1.5155555000000001        1.0178269000000000     
  -1.5111110999999999        1.0178269000000000     
  -1.5066666000000000        1.0178269000000000     
  -1.5022222000000001        1.0178269000000000     
  -1.4977777000000001        1.0178269000000000     
  -1.4933333000000000        1.0178269000000000     
  -1.4888888000000000        1.0178269000000000     
  -1.4844444000000001        1.0178269000000000     
  -1.4799998999999999        1.0178269000000000     
  -1.4755555000000000        1.0178269000000000     
  -1.4711110999999999        1.0178269000000000     
  -1.4666665999999999        1.0178269000000000     
  -1.4622222000000000        1.0178269000000000     
  -1.4577777000000001        1.0178269000000000     
  -1.4533332999999999        1.0178269000000000     
  -1.9866665999999999        1.0267207000000000     
  -1.9822222000000000        1.0267207000000000     
  -1.9777777000000001        1.0267207000000000     
  -1.9733333000000000        1.0267207000000000     
  -1.9688888000000000        1.0267207000000000     
  -1.9644444000000001        1.0267207000000000     
  -1.9600000000000000        1.0267207000000000     
  -1.9555555000000000        1.0267207000000000     
  -1.9511111000000001        1.0267207000000000     
  -1.9466665999999999        1.0267207000000000     
  -1.9422222000000000        1.0267207000000000     
  -1.9377777000000000        1.0267207000000000     
  -1.9333332999999999        1.0267207000000000     
  -1.9288888000000000        1.0267207000000000     
  -1.9244444000000001        1.0267207000000000     
  -1.9199999999999999        1.0267207000000000     
  -1.9155555000000000        1.0267207000000000     
  -1.9111111000000001        1.0267207000000000     
  -1.9066666000000001        1.0267207000000000     
  -1.9022222000000000        1.0267207000000000     
  -1.8977777000000000        1.0267207000000000     
  -1.8933333000000001        1.0267207000000000     
  -1.8888887999999999        1.0267207000000000     
  -1.8844444000000000        1.0267207000000000     
  -1.8799999999999999        1.0267207000000000     
  -1.8755554999999999        1.0267207000000000     
  -1.8711111000000000        1.0267207000000000     
  -1.8666666000000001        1.0267207000000000     
  -1.8622221999999999        1.0267207000000000     
  -1.8577777000000000        1.0267207000000000     
  -1.8533333000000001        1.0267207000000000     
  -1.8488888000000001        1.0267207000000000     
  -1.8444444000000000        1.0267207000000000     
  -1.8400000000000001        1.0267207000000000     
  -1.8355554999999999        1.0267207000000000     
  -1.8311111000000000        1.0267207000000000     
  -1.8266666000000000        1.0267207000000000     
  -1.8222221999999999        1.0267207000000000     
  -1.8177776999999999        1.0267207000000000     
  -1.8133333000000000        1.0267207000000000     
  -1.8088888000000001        1.0267207000000000     
  -1.8044443999999999        1.0267207000000000     
  -1.8000000000000000        1.0267207000000000     
  -1.7955555000000001        1.0267207000000000     
  -1.7911111000000000        1.0267207000000000     
  -1.7866666000000000        1.0267207000000000     
  -1.7822222000000001        1.0267207000000000     
  -1.7777776999999999        1.0267207000000000     
  -1.7733333000000000        1.0267207000000000     
  -1.7688888000000000        1.0267207000000000     
  -1.7644443999999999        1.0267207000000000     
  -1.7600000000000000        1.0267207000000000     
  -1.7555555000000000        1.0267207000000000     
  -1.7511110999999999        1.0267207000000000     
  -1.7466666000000000        1.0267207000000000     
  -1.7422222000000001        1.0267207000000000     
  -1.7377777000000001        1.0267207000000000     
  -1.7333333000000000        1.0267207000000000     
  -1.7288888000000000        1.0267207000000000     
  -1.7244444000000001        1.0267207000000000     
  -1.7200000000000000        1.0267207000000000     
  -1.7155555000000000        1.0267207000000000     
  -1.7111111000000001        1.0267207000000000     
  -1.7066665999999999        1.0267207000000000     
  -1.7022222000000000        1.0267207000000000     
  -1.6977777000000001        1.0267207000000000     
  -1.6933332999999999        1.0267207000000000     
  -1.6888888000000000        1.0267207000000000     
  -1.6844444000000001        1.0267207000000000     
  -1.6799999000000001        1.0267207000000000     
  -1.6755555000000000        1.0267207000000000     
  -1.6711111000000001        1.0267207000000000     
  -1.6666666000000001        1.0267207000000000     
  -1.6622222000000000        1.0267207000000000     
  -1.6577777000000000        1.0267207000000000     
  -1.6533332999999999        1.0267207000000000     
  -1.6488887999999999        1.0267207000000000     
  -1.6444444000000000        1.0267207000000000     
  -1.6399999000000001        1.0267207000000000     
  -1.6355554999999999        1.0267207000000000     
  -1.6311111000000000        1.0267207000000000     
  -1.6266666000000001        1.0267207000000000     
  -1.6222221999999999        1.0267207000000000     
  -1.6177777000000000        1.0267207000000000     
  -1.6133333000000001        1.0267207000000000     
  -1.6088887999999999        1.0267207000000000     
  -1.6044444000000000        1.0267207000000000     
  -1.5999999000000000        1.0267207000000000     
  -1.5955554999999999        1.0267207000000000     
  -1.5911111000000000        1.0267207000000000     
  -1.5866666000000000        1.0267207000000000     
  -1.5822221999999999        1.0267207000000000     
  -1.5777776999999999        1.0267207000000000     
  -1.5733333000000000        1.0267207000000000     
  -1.5688888000000001        1.0267207000000000     
  -1.5644444000000000        1.0267207000000000     
  -1.5599999000000000        1.0267207000000000     
  -1.5555555000000001        1.0267207000000000     
  -1.5511111000000000        1.0267207000000000     
  -1.5466666000000000        1.0267207000000000     
  -1.5422222000000001        1.0267207000000000     
  -1.5377776999999999        1.0267207000000000     
  -1.5333333000000000        1.0267207000000000     
  -1.5288888000000000        1.0267207000000000     
  -1.5244443999999999        1.0267207000000000     
  -1.5199999000000000        1.0267207000000000     
  -1.5155555000000001        1.0267207000000000     
  -1.5111110999999999        1.0267207000000000     
  -1.5066666000000000        1.0267207000000000     
  -1.5022222000000001        1.0267207000000000     
  -1.4977777000000001        1.0267207000000000     
  -1.4933333000000000        1.0267207000000000     
  -1.4888888000000000        1.0267207000000000     
  -1.4844444000000001        1.0267207000000000     
  -1.4799998999999999        1.0267207000000000     
  -1.4755555000000000        1.0267207000000000     
  -1.4711110999999999        1.0267207000000000     
  -1.4666665999999999        1.0267207000000000     
  -1.4622222000000000        1.0267207000000000     
  -1.4577777000000001        1.0267207000000000     
  -1.4533332999999999        1.0267207000000000     
  -1.9866665999999999        1.0356015000000001     
  -1.9822222000000000        1.0356015000000001     
  -1.9777777000000001        1.0356015000000001     
  -1.9733333000000000        1.0356015000000001     
  -1.9688888000000000        1.0356015000000001     
  -1.9644444000000001        1.0356015000000001     
  -1.9600000000000000        1.0356015000000001     
  -1.9555555000000000        1.0356015000000001     
  -1.9511111000000001        1.0356015000000001     
  -1.9466665999999999        1.0356015000000001     
  -1.9422222000000000        1.0356015000000001     
  -1.9377777000000000        1.0356015000000001     
  -1.9333332999999999        1.0356015000000001     
  -1.9288888000000000        1.0356015000000001     
  -1.9244444000000001        1.0356015000000001     
  -1.9199999999999999        1.0356015000000001     
  -1.9155555000000000        1.0356015000000001     
  -1.9111111000000001        1.0356015000000001     
  -1.9066666000000001        1.0356015000000001     
  -1.9022222000000000        1.0356015000000001     
  -1.8977777000000000        1.0356015000000001     
  -1.8933333000000001        1.0356015000000001     
  -1.8888887999999999        1.0356015000000001     
  -1.8844444000000000        1.0356015000000001     
  -1.8799999999999999        1.0356015000000001     
  -1.8755554999999999        1.0356015000000001     
  -1.8711111000000000        1.0356015000000001     
  -1.8666666000000001        1.0356015000000001     
  -1.8622221999999999        1.0356015000000001     
  -1.8577777000000000        1.0356015000000001     
  -1.8533333000000001        1.0356015000000001     
  -1.8488888000000001        1.0356015000000001     
  -1.8444444000000000        1.0356015000000001     
  -1.8400000000000001        1.0356015000000001     
  -1.8355554999999999        1.0356015000000001     
  -1.8311111000000000        1.0356015000000001     
  -1.8266666000000000        1.0356015000000001     
  -1.8222221999999999        1.0356015000000001     
  -1.8177776999999999        1.0356015000000001     
  -1.8133333000000000        1.0356015000000001     
  -1.8088888000000001        1.0356015000000001     
  -1.8044443999999999        1.0356015000000001     
  -1.8000000000000000        1.0356015000000001     
  -1.7955555000000001        1.0356015000000001     
  -1.7911111000000000        1.0356015000000001     
  -1.7866666000000000        1.0356015000000001     
  -1.7822222000000001        1.0356015000000001     
  -1.7777776999999999        1.0356015000000001     
  -1.7733333000000000        1.0356015000000001     
  -1.7688888000000000        1.0356015000000001     
  -1.7644443999999999        1.0356015000000001     
  -1.7600000000000000        1.0356015000000001     
  -1.7555555000000000        1.0356015000000001     
  -1.7511110999999999        1.0356015000000001     
  -1.7466666000000000        1.0356015000000001     
  -1.7422222000000001        1.0356015000000001     
  -1.7377777000000001        1.0356015000000001     
  -1.7333333000000000        1.0356015000000001     
  -1.7288888000000000        1.0356015000000001     
  -1.7244444000000001        1.0356015000000001     
  -1.7200000000000000        1.0356015000000001     
  -1.7155555000000000        1.0356015000000001     
  -1.7111111000000001        1.0356015000000001     
  -1.7066665999999999        1.0356015000000001     
  -1.7022222000000000        1.0356015000000001     
  -1.6977777000000001        1.0356015000000001     
  -1.6933332999999999        1.0356015000000001     
  -1.6888888000000000        1.0356015000000001     
  -1.6844444000000001        1.0356015000000001     
  -1.6799999000000001        1.0356015000000001     
  -1.6755555000000000        1.0356015000000001     
  -1.6711111000000001        1.0356015000000001     
  -1.6666666000000001        1.0356015000000001     
  -1.6622222000000000        1.0356015000000001     
  -1.6577777000000000        1.0356015000000001     
  -1.6533332999999999        1.0356015000000001     
  -1.6488887999999999        1.0356015000000001     
  -1.6444444000000000        1.0356015000000001     
  -1.6399999000000001        1.0356015000000001     
  -1.6355554999999999        1.0356015000000001     