 TITLE = "GRIDBLO_BC0018"
 VARIABLES = "X","Y"
ZONE I=    77,J=   127  ,DATAPACKING=POINT
   1.4961466999999999        4.4642859139999999E-003
   1.5043304000000000        4.4642859139999999E-003
   1.5125017999999999        4.4642859139999999E-003
   1.5206609000000000        4.4642859139999999E-003
   1.5288078000000001        4.4642859139999999E-003
   1.5369424000000000        4.4642859139999999E-003
   1.5450648000000000        4.4642859139999999E-003
   1.5531750000000000        4.4642859139999999E-003
   1.5612729000000001        4.4642859139999999E-003
   1.5693587000000000        4.4642859139999999E-003
   1.5774322999999999        4.4642859139999999E-003
   1.5854938000000001        4.4642859139999999E-003
   1.5935431000000000        4.4642859139999999E-003
   1.6015801999999999        4.4642859139999999E-003
   1.6096052999999999        4.4642859139999999E-003
   1.6176181999999999        4.4642859139999999E-003
   1.6256189999999999        4.4642859139999999E-003
   1.6336078000000001        4.4642859139999999E-003
   1.6415843999999999        4.4642859139999999E-003
   1.6495491000000000        4.4642859139999999E-003
   1.6575017000000001        4.4642859139999999E-003
   1.6654422000000000        4.4642859139999999E-003
   1.6733707000000000        4.4642859139999999E-003
   1.6812872999999999        4.4642859139999999E-003
   1.6891917999999999        4.4642859139999999E-003
   1.6970844000000000        4.4642859139999999E-003
   1.7049650000000001        4.4642859139999999E-003
   1.7128337000000000        4.4642859139999999E-003
   1.7206904000000001        4.4642859139999999E-003
   1.7285352000000000        4.4642859139999999E-003
   1.7363681000000000        4.4642859139999999E-003
   1.7441891000000000        4.4642859139999999E-003
   1.7519982999999999        4.4642859139999999E-003
   1.7597955000000001        4.4642859139999999E-003
   1.7675809000000000        4.4642859139999999E-003
   1.7753544999999999        4.4642859139999999E-003
   1.7831162000000000        4.4642859139999999E-003
   1.7908660999999999        4.4642859139999999E-003
   1.7986042000000000        4.4642859139999999E-003
   1.8063305000000001        4.4642859139999999E-003
   1.8140451000000000        4.4642859139999999E-003
   1.8217478000000000        4.4642859139999999E-003
   1.8294389000000000        4.4642859139999999E-003
   1.8371181999999999        4.4642859139999999E-003
   1.8447857000000001        4.4642859139999999E-003
   1.8524415999999999        4.4642859139999999E-003
   1.8600857000000000        4.4642859139999999E-003
   1.8677182000000001        4.4642859139999999E-003
   1.8753390000000001        4.4642859139999999E-003
   1.8829482000000000        4.4642859139999999E-003
   1.8905457000000001        4.4642859139999999E-003
   1.8981315000000001        4.4642859139999999E-003
   1.9057058000000000        4.4642859139999999E-003
   1.9132684000000000        4.4642859139999999E-003
   1.9208194999999999        4.4642859139999999E-003
   1.9283589000000001        4.4642859139999999E-003
   1.9358868000000000        4.4642859139999999E-003
   1.9434031000000000        4.4642859139999999E-003
   1.9509079000000000        4.4642859139999999E-003
   1.9584012000000000        4.4642859139999999E-003
   1.9658830000000000        4.4642859139999999E-003
   1.9733532000000000        4.4642859139999999E-003
   1.9808120000000000        4.4642859139999999E-003
   1.9882593000000000        4.4642859139999999E-003
   1.9956951000000001        4.4642859139999999E-003
   2.0031194000000001        4.4642859139999999E-003
   2.0105324000000002        4.4642859139999999E-003
   2.0179338000000002        4.4642859139999999E-003
   2.0253239000000001        4.4642859139999999E-003
   2.0327025999999999        4.4642859139999999E-003
   2.0400699000000002        4.4642859139999999E-003
   2.0474258000000001        4.4642859139999999E-003
   2.0547704000000002        4.4642859139999999E-003
   2.0621035999999999        4.4642859139999999E-003
   2.0694254999999999        4.4642859139999999E-003
   2.0767359999999999        4.4642859139999999E-003
   2.0840352000000002        4.4642859139999999E-003
   1.4961466999999999        4.3859650000000003E-003
   1.5043304000000000        4.3859650000000003E-003
   1.5125017999999999        4.3859650000000003E-003
   1.5206609000000000        4.3859650000000003E-003
   1.5288078000000001        4.3859650000000003E-003
   1.5369424000000000        4.3859650000000003E-003
   1.5450648000000000        4.3859650000000003E-003
   1.5531750000000000        4.3859650000000003E-003
   1.5612729000000001        4.3859650000000003E-003
   1.5693587000000000        4.3859650000000003E-003
   1.5774322999999999        4.3859650000000003E-003
   1.5854938000000001        4.3859650000000003E-003
   1.5935431000000000        4.3859650000000003E-003
   1.6015801999999999        4.3859650000000003E-003
   1.6096052999999999        4.3859650000000003E-003
   1.6176181999999999        4.3859650000000003E-003
   1.6256189999999999        4.3859650000000003E-003
   1.6336078000000001        4.3859650000000003E-003
   1.6415843999999999        4.3859650000000003E-003
   1.6495491000000000        4.3859650000000003E-003
   1.6575017000000001        4.3859650000000003E-003
   1.6654422000000000        4.3859650000000003E-003
   1.6733707000000000        4.3859650000000003E-003
   1.6812872999999999        4.3859650000000003E-003
   1.6891917999999999        4.3859650000000003E-003
   1.6970844000000000        4.3859650000000003E-003
   1.7049650000000001        4.3859650000000003E-003
   1.7128337000000000        4.3859650000000003E-003
   1.7206904000000001        4.3859650000000003E-003
   1.7285352000000000        4.3859650000000003E-003
   1.7363681000000000        4.3859650000000003E-003
   1.7441891000000000        4.3859650000000003E-003
   1.7519982999999999        4.3859650000000003E-003
   1.7597955000000001        4.3859650000000003E-003
   1.7675809000000000        4.3859650000000003E-003
   1.7753544999999999        4.3859650000000003E-003
   1.7831162000000000        4.3859650000000003E-003
   1.7908660999999999        4.3859650000000003E-003
   1.7986042000000000        4.3859650000000003E-003
   1.8063305000000001        4.3859650000000003E-003
   1.8140451000000000        4.3859650000000003E-003
   1.8217478000000000        4.3859650000000003E-003
   1.8294389000000000        4.3859650000000003E-003
   1.8371181999999999        4.3859650000000003E-003
   1.8447857000000001        4.3859650000000003E-003
   1.8524415999999999        4.3859650000000003E-003
   1.8600857000000000        4.3859650000000003E-003
   1.8677182000000001        4.3859650000000003E-003
   1.8753390000000001        4.3859650000000003E-003
   1.8829482000000000        4.3859650000000003E-003
   1.8905457000000001        4.3859650000000003E-003
   1.8981315000000001        4.3859650000000003E-003
   1.9057058000000000        4.3859650000000003E-003
   1.9132684000000000        4.3859650000000003E-003
   1.9208194999999999        4.3859650000000003E-003
   1.9283589000000001        4.3859650000000003E-003
   1.9358868000000000        4.3859650000000003E-003
   1.9434031000000000        4.3859650000000003E-003
   1.9509079000000000        4.3859650000000003E-003
   1.9584012000000000        4.3859650000000003E-003
   1.9658830000000000        4.3859650000000003E-003
   1.9733532000000000        4.3859650000000003E-003
   1.9808120000000000        4.3859650000000003E-003
   1.9882593000000000        4.3859650000000003E-003
   1.9956951000000001        4.3859650000000003E-003
   2.0031194000000001        4.3859650000000003E-003
   2.0105324000000002        4.3859650000000003E-003
   2.0179338000000002        4.3859650000000003E-003
   2.0253239000000001        4.3859650000000003E-003
   2.0327025999999999        4.3859650000000003E-003
   2.0400699000000002        4.3859650000000003E-003
   2.0474258000000001        4.3859650000000003E-003
   2.0547704000000002        4.3859650000000003E-003
   2.0621035999999999        4.3859650000000003E-003
   2.0694254999999999        4.3859650000000003E-003
   2.0767359999999999        4.3859650000000003E-003
   2.0840352000000002        4.3859650000000003E-003
   1.4961466999999999        8.7719301000000003E-003
   1.5043304000000000        8.7719301000000003E-003
   1.5125017999999999        8.7719301000000003E-003
   1.5206609000000000        8.7719301000000003E-003
   1.5288078000000001        8.7719301000000003E-003
   1.5369424000000000        8.7719301000000003E-003
   1.5450648000000000        8.7719301000000003E-003
   1.5531750000000000        8.7719301000000003E-003
   1.5612729000000001        8.7719301000000003E-003
   1.5693587000000000        8.7719301000000003E-003
   1.5774322999999999        8.7719301000000003E-003
   1.5854938000000001        8.7719301000000003E-003
   1.5935431000000000        8.7719301000000003E-003
   1.6015801999999999        8.7719301000000003E-003
   1.6096052999999999        8.7719301000000003E-003
   1.6176181999999999        8.7719301000000003E-003
   1.6256189999999999        8.7719301000000003E-003
   1.6336078000000001        8.7719301000000003E-003
   1.6415843999999999        8.7719301000000003E-003
   1.6495491000000000        8.7719301000000003E-003
   1.6575017000000001        8.7719301000000003E-003
   1.6654422000000000        8.7719301000000003E-003
   1.6733707000000000        8.7719301000000003E-003
   1.6812872999999999        8.7719301000000003E-003
   1.6891917999999999        8.7719301000000003E-003
   1.6970844000000000        8.7719301000000003E-003
   1.7049650000000001        8.7719301000000003E-003
   1.7128337000000000        8.7719301000000003E-003
   1.7206904000000001        8.7719301000000003E-003
   1.7285352000000000        8.7719301000000003E-003
   1.7363681000000000        8.7719301000000003E-003
   1.7441891000000000        8.7719301000000003E-003
   1.7519982999999999        8.7719301000000003E-003
   1.7597955000000001        8.7719301000000003E-003
   1.7675809000000000        8.7719301000000003E-003
   1.7753544999999999        8.7719301000000003E-003
   1.7831162000000000        8.7719301000000003E-003
   1.7908660999999999        8.7719301000000003E-003
   1.7986042000000000        8.7719301000000003E-003
   1.8063305000000001        8.7719301000000003E-003
   1.8140451000000000        8.7719301000000003E-003
   1.8217478000000000        8.7719301000000003E-003
   1.8294389000000000        8.7719301000000003E-003
   1.8371181999999999        8.7719301000000003E-003
   1.8447857000000001        8.7719301000000003E-003
   1.8524415999999999        8.7719301000000003E-003
   1.8600857000000000        8.7719301000000003E-003
   1.8677182000000001        8.7719301000000003E-003
   1.8753390000000001        8.7719301000000003E-003
   1.8829482000000000        8.7719301000000003E-003
   1.8905457000000001        8.7719301000000003E-003
   1.8981315000000001        8.7719301000000003E-003
   1.9057058000000000        8.7719301000000003E-003
   1.9132684000000000        8.7719301000000003E-003
   1.9208194999999999        8.7719301000000003E-003
   1.9283589000000001        8.7719301000000003E-003
   1.9358868000000000        8.7719301000000003E-003
   1.9434031000000000        8.7719301000000003E-003
   1.9509079000000000        8.7719301000000003E-003
   1.9584012000000000        8.7719301000000003E-003
   1.9658830000000000        8.7719301000000003E-003
   1.9733532000000000        8.7719301000000003E-003
   1.9808120000000000        8.7719301000000003E-003
   1.9882593000000000        8.7719301000000003E-003
   1.9956951000000001        8.7719301000000003E-003
   2.0031194000000001        8.7719301000000003E-003
   2.0105324000000002        8.7719301000000003E-003
   2.0179338000000002        8.7719301000000003E-003
   2.0253239000000001        8.7719301000000003E-003
   2.0327025999999999        8.7719301000000003E-003
   2.0400699000000002        8.7719301000000003E-003
   2.0474258000000001        8.7719301000000003E-003
   2.0547704000000002        8.7719301000000003E-003
   2.0621035999999999        8.7719301000000003E-003
   2.0694254999999999        8.7719301000000003E-003
   2.0767359999999999        8.7719301000000003E-003
   2.0840352000000002        8.7719301000000003E-003
   1.4961466999999999        1.3157894999999999E-002
   1.5043304000000000        1.3157894999999999E-002
   1.5125017999999999        1.3157894999999999E-002
   1.5206609000000000        1.3157894999999999E-002
   1.5288078000000001        1.3157894999999999E-002
   1.5369424000000000        1.3157894999999999E-002
   1.5450648000000000        1.3157894999999999E-002
   1.5531750000000000        1.3157894999999999E-002
   1.5612729000000001        1.3157894999999999E-002
   1.5693587000000000        1.3157894999999999E-002
   1.5774322999999999        1.3157894999999999E-002
   1.5854938000000001        1.3157894999999999E-002
   1.5935431000000000        1.3157894999999999E-002
   1.6015801999999999        1.3157894999999999E-002
   1.6096052999999999        1.3157894999999999E-002
   1.6176181999999999        1.3157894999999999E-002
   1.6256189999999999        1.3157894999999999E-002
   1.6336078000000001        1.3157894999999999E-002
   1.6415843999999999        1.3157894999999999E-002
   1.6495491000000000        1.3157894999999999E-002
   1.6575017000000001        1.3157894999999999E-002
   1.6654422000000000        1.3157894999999999E-002
   1.6733707000000000        1.3157894999999999E-002
   1.6812872999999999        1.3157894999999999E-002
   1.6891917999999999        1.3157894999999999E-002
   1.6970844000000000        1.3157894999999999E-002
   1.7049650000000001        1.3157894999999999E-002
   1.7128337000000000        1.3157894999999999E-002
   1.7206904000000001        1.3157894999999999E-002
   1.7285352000000000        1.3157894999999999E-002
   1.7363681000000000        1.3157894999999999E-002
   1.7441891000000000        1.3157894999999999E-002
   1.7519982999999999        1.3157894999999999E-002
   1.7597955000000001        1.3157894999999999E-002
   1.7675809000000000        1.3157894999999999E-002
   1.7753544999999999        1.3157894999999999E-002
   1.7831162000000000        1.3157894999999999E-002
   1.7908660999999999        1.3157894999999999E-002
   1.7986042000000000        1.3157894999999999E-002
   1.8063305000000001        1.3157894999999999E-002
   1.8140451000000000        1.3157894999999999E-002
   1.8217478000000000        1.3157894999999999E-002
   1.8294389000000000        1.3157894999999999E-002
   1.8371181999999999        1.3157894999999999E-002
   1.8447857000000001        1.3157894999999999E-002
   1.8524415999999999        1.3157894999999999E-002
   1.8600857000000000        1.3157894999999999E-002
   1.8677182000000001        1.3157894999999999E-002
   1.8753390000000001        1.3157894999999999E-002
   1.8829482000000000        1.3157894999999999E-002
   1.8905457000000001        1.3157894999999999E-002
   1.8981315000000001        1.3157894999999999E-002
   1.9057058000000000        1.3157894999999999E-002
   1.9132684000000000        1.3157894999999999E-002
   1.9208194999999999        1.3157894999999999E-002
   1.9283589000000001        1.3157894999999999E-002
   1.9358868000000000        1.3157894999999999E-002
   1.9434031000000000        1.3157894999999999E-002
   1.9509079000000000        1.3157894999999999E-002
   1.9584012000000000        1.3157894999999999E-002
   1.9658830000000000        1.3157894999999999E-002
   1.9733532000000000        1.3157894999999999E-002
   1.9808120000000000        1.3157894999999999E-002
   1.9882593000000000        1.3157894999999999E-002
   1.9956951000000001        1.3157894999999999E-002
   2.0031194000000001        1.3157894999999999E-002
   2.0105324000000002        1.3157894999999999E-002
   2.0179338000000002        1.3157894999999999E-002
   2.0253239000000001        1.3157894999999999E-002
   2.0327025999999999        1.3157894999999999E-002
   2.0400699000000002        1.3157894999999999E-002
   2.0474258000000001        1.3157894999999999E-002
   2.0547704000000002        1.3157894999999999E-002
   2.0621035999999999        1.3157894999999999E-002
   2.0694254999999999        1.3157894999999999E-002
   2.0767359999999999        1.3157894999999999E-002
   2.0840352000000002        1.3157894999999999E-002
   1.4961466999999999        1.7543860000000001E-002
   1.5043304000000000        1.7543860000000001E-002
   1.5125017999999999        1.7543860000000001E-002
   1.5206609000000000        1.7543860000000001E-002
   1.5288078000000001        1.7543860000000001E-002
   1.5369424000000000        1.7543860000000001E-002
   1.5450648000000000        1.7543860000000001E-002
   1.5531750000000000        1.7543860000000001E-002
   1.5612729000000001        1.7543860000000001E-002
   1.5693587000000000        1.7543860000000001E-002
   1.5774322999999999        1.7543860000000001E-002
   1.5854938000000001        1.7543860000000001E-002
   1.5935431000000000        1.7543860000000001E-002
   1.6015801999999999        1.7543860000000001E-002
   1.6096052999999999        1.7543860000000001E-002
   1.6176181999999999        1.7543860000000001E-002
   1.6256189999999999        1.7543860000000001E-002
   1.6336078000000001        1.7543860000000001E-002
   1.6415843999999999        1.7543860000000001E-002
   1.6495491000000000        1.7543860000000001E-002
   1.6575017000000001        1.7543860000000001E-002
   1.6654422000000000        1.7543860000000001E-002
   1.6733707000000000        1.7543860000000001E-002
   1.6812872999999999        1.7543860000000001E-002
   1.6891917999999999        1.7543860000000001E-002
   1.6970844000000000        1.7543860000000001E-002
   1.7049650000000001        1.7543860000000001E-002
   1.7128337000000000        1.7543860000000001E-002
   1.7206904000000001        1.7543860000000001E-002
   1.7285352000000000        1.7543860000000001E-002
   1.7363681000000000        1.7543860000000001E-002
   1.7441891000000000        1.7543860000000001E-002
   1.7519982999999999        1.7543860000000001E-002
   1.7597955000000001        1.7543860000000001E-002
   1.7675809000000000        1.7543860000000001E-002
   1.7753544999999999        1.7543860000000001E-002
   1.7831162000000000        1.7543860000000001E-002
   1.7908660999999999        1.7543860000000001E-002
   1.7986042000000000        1.7543860000000001E-002
   1.8063305000000001        1.7543860000000001E-002
   1.8140451000000000        1.7543860000000001E-002
   1.8217478000000000        1.7543860000000001E-002
   1.8294389000000000        1.7543860000000001E-002
   1.8371181999999999        1.7543860000000001E-002
   1.8447857000000001        1.7543860000000001E-002
   1.8524415999999999        1.7543860000000001E-002
   1.8600857000000000        1.7543860000000001E-002
   1.8677182000000001        1.7543860000000001E-002
   1.8753390000000001        1.7543860000000001E-002
   1.8829482000000000        1.7543860000000001E-002
   1.8905457000000001        1.7543860000000001E-002
   1.8981315000000001        1.7543860000000001E-002
   1.9057058000000000        1.7543860000000001E-002
   1.9132684000000000        1.7543860000000001E-002
   1.9208194999999999        1.7543860000000001E-002
   1.9283589000000001        1.7543860000000001E-002
   1.9358868000000000        1.7543860000000001E-002
   1.9434031000000000        1.7543860000000001E-002
   1.9509079000000000        1.7543860000000001E-002
   1.9584012000000000        1.7543860000000001E-002
   1.9658830000000000        1.7543860000000001E-002
   1.9733532000000000        1.7543860000000001E-002
   1.9808120000000000        1.7543860000000001E-002
   1.9882593000000000        1.7543860000000001E-002
   1.9956951000000001        1.7543860000000001E-002
   2.0031194000000001        1.7543860000000001E-002
   2.0105324000000002        1.7543860000000001E-002
   2.0179338000000002        1.7543860000000001E-002
   2.0253239000000001        1.7543860000000001E-002
   2.0327025999999999        1.7543860000000001E-002
   2.0400699000000002        1.7543860000000001E-002
   2.0474258000000001        1.7543860000000001E-002
   2.0547704000000002        1.7543860000000001E-002
   2.0621035999999999        1.7543860000000001E-002
   2.0694254999999999        1.7543860000000001E-002
   2.0767359999999999        1.7543860000000001E-002
   2.0840352000000002        1.7543860000000001E-002
   1.4961466999999999        2.1929825000000000E-002
   1.5043304000000000        2.1929825000000000E-002
   1.5125017999999999        2.1929825000000000E-002
   1.5206609000000000        2.1929825000000000E-002
   1.5288078000000001        2.1929825000000000E-002
   1.5369424000000000        2.1929825000000000E-002
   1.5450648000000000        2.1929825000000000E-002
   1.5531750000000000        2.1929825000000000E-002
   1.5612729000000001        2.1929825000000000E-002
   1.5693587000000000        2.1929825000000000E-002
   1.5774322999999999        2.1929825000000000E-002
   1.5854938000000001        2.1929825000000000E-002
   1.5935431000000000        2.1929825000000000E-002
   1.6015801999999999        2.1929825000000000E-002
   1.6096052999999999        2.1929825000000000E-002
   1.6176181999999999        2.1929825000000000E-002
   1.6256189999999999        2.1929825000000000E-002
   1.6336078000000001        2.1929825000000000E-002
   1.6415843999999999        2.1929825000000000E-002
   1.6495491000000000        2.1929825000000000E-002
   1.6575017000000001        2.1929825000000000E-002
   1.6654422000000000        2.1929825000000000E-002
   1.6733707000000000        2.1929825000000000E-002
   1.6812872999999999        2.1929825000000000E-002
   1.6891917999999999        2.1929825000000000E-002
   1.6970844000000000        2.1929825000000000E-002
   1.7049650000000001        2.1929825000000000E-002
   1.7128337000000000        2.1929825000000000E-002
   1.7206904000000001        2.1929825000000000E-002
   1.7285352000000000        2.1929825000000000E-002
   1.7363681000000000        2.1929825000000000E-002
   1.7441891000000000        2.1929825000000000E-002
   1.7519982999999999        2.1929825000000000E-002
   1.7597955000000001        2.1929825000000000E-002
   1.7675809000000000        2.1929825000000000E-002
   1.7753544999999999        2.1929825000000000E-002
   1.7831162000000000        2.1929825000000000E-002
   1.7908660999999999        2.1929825000000000E-002
   1.7986042000000000        2.1929825000000000E-002
   1.8063305000000001        2.1929825000000000E-002
   1.8140451000000000        2.1929825000000000E-002
   1.8217478000000000        2.1929825000000000E-002
   1.8294389000000000        2.1929825000000000E-002
   1.8371181999999999        2.1929825000000000E-002
   1.8447857000000001        2.1929825000000000E-002
   1.8524415999999999        2.1929825000000000E-002
   1.8600857000000000        2.1929825000000000E-002
   1.8677182000000001        2.1929825000000000E-002
   1.8753390000000001        2.1929825000000000E-002
   1.8829482000000000        2.1929825000000000E-002
   1.8905457000000001        2.1929825000000000E-002
   1.8981315000000001        2.1929825000000000E-002
   1.9057058000000000        2.1929825000000000E-002
   1.9132684000000000        2.1929825000000000E-002
   1.9208194999999999        2.1929825000000000E-002
   1.9283589000000001        2.1929825000000000E-002
   1.9358868000000000        2.1929825000000000E-002
   1.9434031000000000        2.1929825000000000E-002
   1.9509079000000000        2.1929825000000000E-002
   1.9584012000000000        2.1929825000000000E-002
   1.9658830000000000        2.1929825000000000E-002
   1.9733532000000000        2.1929825000000000E-002
   1.9808120000000000        2.1929825000000000E-002
   1.9882593000000000        2.1929825000000000E-002
   1.9956951000000001        2.1929825000000000E-002
   2.0031194000000001        2.1929825000000000E-002
   2.0105324000000002        2.1929825000000000E-002
   2.0179338000000002        2.1929825000000000E-002
   2.0253239000000001        2.1929825000000000E-002
   2.0327025999999999        2.1929825000000000E-002
   2.0400699000000002        2.1929825000000000E-002
   2.0474258000000001        2.1929825000000000E-002
   2.0547704000000002        2.1929825000000000E-002
   2.0621035999999999        2.1929825000000000E-002
   2.0694254999999999        2.1929825000000000E-002
   2.0767359999999999        2.1929825000000000E-002
   2.0840352000000002        2.1929825000000000E-002
   1.4961466999999999        2.6315789999999999E-002
   1.5043304000000000        2.6315789999999999E-002
   1.5125017999999999        2.6315789999999999E-002
   1.5206609000000000        2.6315789999999999E-002
   1.5288078000000001        2.6315789999999999E-002
   1.5369424000000000        2.6315789999999999E-002
   1.5450648000000000        2.6315789999999999E-002
   1.5531750000000000        2.6315789999999999E-002
   1.5612729000000001        2.6315789999999999E-002
   1.5693587000000000        2.6315789999999999E-002
   1.5774322999999999        2.6315789999999999E-002
   1.5854938000000001        2.6315789999999999E-002
   1.5935431000000000        2.6315789999999999E-002
   1.6015801999999999        2.6315789999999999E-002
   1.6096052999999999        2.6315789999999999E-002
   1.6176181999999999        2.6315789999999999E-002
   1.6256189999999999        2.6315789999999999E-002
   1.6336078000000001        2.6315789999999999E-002
   1.6415843999999999        2.6315789999999999E-002
   1.6495491000000000        2.6315789999999999E-002
   1.6575017000000001        2.6315789999999999E-002
   1.6654422000000000        2.6315789999999999E-002
   1.6733707000000000        2.6315789999999999E-002
   1.6812872999999999        2.6315789999999999E-002
   1.6891917999999999        2.6315789999999999E-002
   1.6970844000000000        2.6315789999999999E-002
   1.7049650000000001        2.6315789999999999E-002
   1.7128337000000000        2.6315789999999999E-002
   1.7206904000000001        2.6315789999999999E-002
   1.7285352000000000        2.6315789999999999E-002
   1.7363681000000000        2.6315789999999999E-002
   1.7441891000000000        2.6315789999999999E-002
   1.7519982999999999        2.6315789999999999E-002
   1.7597955000000001        2.6315789999999999E-002
   1.7675809000000000        2.6315789999999999E-002
   1.7753544999999999        2.6315789999999999E-002
   1.7831162000000000        2.6315789999999999E-002
   1.7908660999999999        2.6315789999999999E-002
   1.7986042000000000        2.6315789999999999E-002
   1.8063305000000001        2.6315789999999999E-002
   1.8140451000000000        2.6315789999999999E-002
   1.8217478000000000        2.6315789999999999E-002
   1.8294389000000000        2.6315789999999999E-002
   1.8371181999999999        2.6315789999999999E-002
   1.8447857000000001        2.6315789999999999E-002
   1.8524415999999999        2.6315789999999999E-002
   1.8600857000000000        2.6315789999999999E-002
   1.8677182000000001        2.6315789999999999E-002
   1.8753390000000001        2.6315789999999999E-002
   1.8829482000000000        2.6315789999999999E-002
   1.8905457000000001        2.6315789999999999E-002
   1.8981315000000001        2.6315789999999999E-002
   1.9057058000000000        2.6315789999999999E-002
   1.9132684000000000        2.6315789999999999E-002
   1.9208194999999999        2.6315789999999999E-002
   1.9283589000000001        2.6315789999999999E-002
   1.9358868000000000        2.6315789999999999E-002
   1.9434031000000000        2.6315789999999999E-002
   1.9509079000000000        2.6315789999999999E-002
   1.9584012000000000        2.6315789999999999E-002
   1.9658830000000000        2.6315789999999999E-002
   1.9733532000000000        2.6315789999999999E-002
   1.9808120000000000        2.6315789999999999E-002
   1.9882593000000000        2.6315789999999999E-002
   1.9956951000000001        2.6315789999999999E-002
   2.0031194000000001        2.6315789999999999E-002
   2.0105324000000002        2.6315789999999999E-002
   2.0179338000000002        2.6315789999999999E-002
   2.0253239000000001        2.6315789999999999E-002
   2.0327025999999999        2.6315789999999999E-002
   2.0400699000000002        2.6315789999999999E-002
   2.0474258000000001        2.6315789999999999E-002
   2.0547704000000002        2.6315789999999999E-002
   2.0621035999999999        2.6315789999999999E-002
   2.0694254999999999        2.6315789999999999E-002
   2.0767359999999999        2.6315789999999999E-002
   2.0840352000000002        2.6315789999999999E-002
   1.4961466999999999        3.0701755000000001E-002
   1.5043304000000000        3.0701755000000001E-002
   1.5125017999999999        3.0701755000000001E-002
   1.5206609000000000        3.0701755000000001E-002
   1.5288078000000001        3.0701755000000001E-002
   1.5369424000000000        3.0701755000000001E-002
   1.5450648000000000        3.0701755000000001E-002
   1.5531750000000000        3.0701755000000001E-002
   1.5612729000000001        3.0701755000000001E-002
   1.5693587000000000        3.0701755000000001E-002
   1.5774322999999999        3.0701755000000001E-002
   1.5854938000000001        3.0701755000000001E-002
   1.5935431000000000        3.0701755000000001E-002
   1.6015801999999999        3.0701755000000001E-002
   1.6096052999999999        3.0701755000000001E-002
   1.6176181999999999        3.0701755000000001E-002
   1.6256189999999999        3.0701755000000001E-002
   1.6336078000000001        3.0701755000000001E-002
   1.6415843999999999        3.0701755000000001E-002
   1.6495491000000000        3.0701755000000001E-002
   1.6575017000000001        3.0701755000000001E-002
   1.6654422000000000        3.0701755000000001E-002
   1.6733707000000000        3.0701755000000001E-002
   1.6812872999999999        3.0701755000000001E-002
   1.6891917999999999        3.0701755000000001E-002