 TITLE = "GRIDBLO_BC0007"
 VARIABLES = "X","Y"
ZONE I=   147,J=   127  ,DATAPACKING=POINT
  0.94736832999999998        0.0000000000000000     
  0.95175430000000005        0.0000000000000000     
  0.95614025999999996        0.0000000000000000     
  0.96052623000000004        0.0000000000000000     
  0.96491218999999995        0.0000000000000000     
  0.96929816000000002        0.0000000000000000     
  0.97368412000000004        0.0000000000000000     
  0.97807009000000000        0.0000000000000000     
  0.98245605000000003        0.0000000000000000     
  0.98684201999999999        0.0000000000000000     
  0.99122798000000001        0.0000000000000000     
  0.99561394999999997        0.0000000000000000     
  0.99999990999999999        0.0000000000000000     
   1.0089199000000000        0.0000000000000000     
   1.0178267999999999        0.0000000000000000     
   1.0267206000000000        0.0000000000000000     
   1.0356014000000000        0.0000000000000000     
   1.0444690999999999        0.0000000000000000     
   1.0533237000000000        0.0000000000000000     
   1.0621653000000000        0.0000000000000000     
   1.0709940000000000        0.0000000000000000     
   1.0798095999999999        0.0000000000000000     
   1.0886122000000000        0.0000000000000000     
   1.0974018999999999        0.0000000000000000     
   1.1061786000000000        0.0000000000000000     
   1.1149423000000001        0.0000000000000000     
   1.1236931999999999        0.0000000000000000     
   1.1324311000000000        0.0000000000000000     
   1.1411560999999999        0.0000000000000000     
   1.1498682000000000        0.0000000000000000     
   1.1585675000000000        0.0000000000000000     
   1.1672539000000000        0.0000000000000000     
   1.1759275000000000        0.0000000000000000     
   1.1845882999999999        0.0000000000000000     
   1.1932362000000001        0.0000000000000000     
   1.2018713000000001        0.0000000000000000     
   1.2104937000000000        0.0000000000000000     
   1.2191033000000000        0.0000000000000000     
   1.2277001000000001        0.0000000000000000     
   1.2362842000000001        0.0000000000000000     
   1.2448554999999999        0.0000000000000000     
   1.2534141999999999        0.0000000000000000     
   1.2619601000000000        0.0000000000000000     
   1.2704933000000000        0.0000000000000000     
   1.2790139000000000        0.0000000000000000     
   1.2875217999999999        0.0000000000000000     
   1.2960171000000000        0.0000000000000000     
   1.3044998000000001        0.0000000000000000     
   1.3129698000000001        0.0000000000000000     
   1.3214272000000000        0.0000000000000000     
   1.3298721000000000        0.0000000000000000     
   1.3383042999999999        0.0000000000000000     
   1.3467240000000000        0.0000000000000000     
   1.3551312000000000        0.0000000000000000     
   1.3635257999999999        0.0000000000000000     
   1.3719079000000001        0.0000000000000000     
   1.3802775000000000        0.0000000000000000     
   1.3886347000000001        0.0000000000000000     
   1.3969792999999999        0.0000000000000000     
   1.4053115000000000        0.0000000000000000     
   1.4136312000000000        0.0000000000000000     
   1.4219385000000000        0.0000000000000000     
   1.4302333000000000        0.0000000000000000     
   1.4385158000000000        0.0000000000000000     
   1.4467859000000001        0.0000000000000000     
   1.4550434999999999        0.0000000000000000     
   1.4632887999999999        0.0000000000000000     
   1.4715218000000001        0.0000000000000000     
   1.4797423999999999        0.0000000000000000     
   1.4879507000000001        0.0000000000000000     
   1.4961466999999999        0.0000000000000000     
   1.5043304000000000        0.0000000000000000     
   1.5125017999999999        0.0000000000000000     
   1.5206609000000000        0.0000000000000000     
   1.5288078000000001        0.0000000000000000     
   1.5369424000000000        0.0000000000000000     
   1.5450648000000000        0.0000000000000000     
   1.5531750000000000        0.0000000000000000     
   1.5612729000000001        0.0000000000000000     
   1.5693587000000000        0.0000000000000000     
   1.5774322999999999        0.0000000000000000     
   1.5854938000000001        0.0000000000000000     
   1.5935431000000000        0.0000000000000000     
   1.6015801999999999        0.0000000000000000     
   1.6096052999999999        0.0000000000000000     
   1.6176181999999999        0.0000000000000000     
   1.6256189999999999        0.0000000000000000     
   1.6336078000000001        0.0000000000000000     
   1.6415843999999999        0.0000000000000000     
   1.6495491000000000        0.0000000000000000     
   1.6575017000000001        0.0000000000000000     
   1.6654422000000000        0.0000000000000000     
   1.6733707000000000        0.0000000000000000     
   1.6812872999999999        0.0000000000000000     
   1.6891917999999999        0.0000000000000000     
   1.6970844000000000        0.0000000000000000     
   1.7049650000000001        0.0000000000000000     
   1.7128337000000000        0.0000000000000000     
   1.7206904000000001        0.0000000000000000     
   1.7285352000000000        0.0000000000000000     
   1.7363681000000000        0.0000000000000000     
   1.7441891000000000        0.0000000000000000     
   1.7519982999999999        0.0000000000000000     
   1.7597955000000001        0.0000000000000000     
   1.7675809000000000        0.0000000000000000     
   1.7753544999999999        0.0000000000000000     
   1.7831162000000000        0.0000000000000000     
   1.7908660999999999        0.0000000000000000     
   1.7986042000000000        0.0000000000000000     
   1.8063305000000001        0.0000000000000000     
   1.8140451000000000        0.0000000000000000     
   1.8217478000000000        0.0000000000000000     
   1.8294389000000000        0.0000000000000000     
   1.8371181999999999        0.0000000000000000     
   1.8447857000000001        0.0000000000000000     
   1.8524415999999999        0.0000000000000000     
   1.8600857000000000        0.0000000000000000     
   1.8677182000000001        0.0000000000000000     
   1.8753390000000001        0.0000000000000000     
   1.8829482000000000        0.0000000000000000     
   1.8905457000000001        0.0000000000000000     
   1.8981315000000001        0.0000000000000000     
   1.9057058000000000        0.0000000000000000     
   1.9132684000000000        0.0000000000000000     
   1.9208194999999999        0.0000000000000000     
   1.9283589000000001        0.0000000000000000     
   1.9358868000000000        0.0000000000000000     
   1.9434031000000000        0.0000000000000000     
   1.9509079000000000        0.0000000000000000     
   1.9584012000000000        0.0000000000000000     
   1.9658830000000000        0.0000000000000000     
   1.9733532000000000        0.0000000000000000     
   1.9808120000000000        0.0000000000000000     
   1.9882593000000000        0.0000000000000000     
   1.9956951000000001        0.0000000000000000     
   2.0031194000000001        0.0000000000000000     
   2.0105324000000002        0.0000000000000000     
   2.0179338000000002        0.0000000000000000     
   2.0253239000000001        0.0000000000000000     
   2.0327025999999999        0.0000000000000000     
   2.0400699000000002        0.0000000000000000     
   2.0474258000000001        0.0000000000000000     
   2.0547704000000002        0.0000000000000000     
   2.0621035999999999        0.0000000000000000     
   2.0694254999999999        0.0000000000000000     
   2.0767359999999999        0.0000000000000000     
   2.0840352000000002        0.0000000000000000     
  0.94736832999999998        4.3859650000000003E-003
  0.95175430000000005        4.3859650000000003E-003
  0.95614025999999996        4.3859650000000003E-003
  0.96052623000000004        4.3859650000000003E-003
  0.96491218999999995        4.3859650000000003E-003
  0.96929816000000002        4.3859650000000003E-003
  0.97368412000000004        4.3859650000000003E-003
  0.97807009000000000        4.3859650000000003E-003
  0.98245605000000003        4.3859650000000003E-003
  0.98684201999999999        4.3859650000000003E-003
  0.99122798000000001        4.3859650000000003E-003
  0.99561394999999997        4.3859650000000003E-003
  0.99999990999999999        4.3859650000000003E-003
   1.0089199000000000        4.3859650000000003E-003
   1.0178267999999999        4.3859650000000003E-003
   1.0267206000000000        4.3859650000000003E-003
   1.0356014000000000        4.3859650000000003E-003
   1.0444690999999999        4.3859650000000003E-003
   1.0533237000000000        4.3859650000000003E-003
   1.0621653000000000        4.3859650000000003E-003
   1.0709940000000000        4.3859650000000003E-003
   1.0798095999999999        4.3859650000000003E-003
   1.0886122000000000        4.3859650000000003E-003
   1.0974018999999999        4.3859650000000003E-003
   1.1061786000000000        4.3859650000000003E-003
   1.1149423000000001        4.3859650000000003E-003
   1.1236931999999999        4.3859650000000003E-003
   1.1324311000000000        4.3859650000000003E-003
   1.1411560999999999        4.3859650000000003E-003
   1.1498682000000000        4.3859650000000003E-003
   1.1585675000000000        4.3859650000000003E-003
   1.1672539000000000        4.3859650000000003E-003
   1.1759275000000000        4.3859650000000003E-003
   1.1845882999999999        4.3859650000000003E-003
   1.1932362000000001        4.3859650000000003E-003
   1.2018713000000001        4.3859650000000003E-003
   1.2104937000000000        4.3859650000000003E-003
   1.2191033000000000        4.3859650000000003E-003
   1.2277001000000001        4.3859650000000003E-003
   1.2362842000000001        4.3859650000000003E-003
   1.2448554999999999        4.3859650000000003E-003
   1.2534141999999999        4.3859650000000003E-003
   1.2619601000000000        4.3859650000000003E-003
   1.2704933000000000        4.3859650000000003E-003
   1.2790139000000000        4.3859650000000003E-003
   1.2875217999999999        4.3859650000000003E-003
   1.2960171000000000        4.3859650000000003E-003
   1.3044998000000001        4.3859650000000003E-003
   1.3129698000000001        4.3859650000000003E-003
   1.3214272000000000        4.3859650000000003E-003
   1.3298721000000000        4.3859650000000003E-003
   1.3383042999999999        4.3859650000000003E-003
   1.3467240000000000        4.3859650000000003E-003
   1.3551312000000000        4.3859650000000003E-003
   1.3635257999999999        4.3859650000000003E-003
   1.3719079000000001        4.3859650000000003E-003
   1.3802775000000000        4.3859650000000003E-003
   1.3886347000000001        4.3859650000000003E-003
   1.3969792999999999        4.3859650000000003E-003
   1.4053115000000000        4.3859650000000003E-003
   1.4136312000000000        4.3859650000000003E-003
   1.4219385000000000        4.3859650000000003E-003
   1.4302333000000000        4.3859650000000003E-003
   1.4385158000000000        4.3859650000000003E-003
   1.4467859000000001        4.3859650000000003E-003
   1.4550434999999999        4.3859650000000003E-003
   1.4632887999999999        4.3859650000000003E-003
   1.4715218000000001        4.3859650000000003E-003
   1.4797423999999999        4.3859650000000003E-003
   1.4879507000000001        4.3859650000000003E-003
   1.4961466999999999        4.3859650000000003E-003
   1.5043304000000000        4.3859650000000003E-003
   1.5125017999999999        4.3859650000000003E-003
   1.5206609000000000        4.3859650000000003E-003
   1.5288078000000001        4.3859650000000003E-003
   1.5369424000000000        4.3859650000000003E-003
   1.5450648000000000        4.3859650000000003E-003
   1.5531750000000000        4.3859650000000003E-003
   1.5612729000000001        4.3859650000000003E-003
   1.5693587000000000        4.3859650000000003E-003
   1.5774322999999999        4.3859650000000003E-003
   1.5854938000000001        4.3859650000000003E-003
   1.5935431000000000        4.3859650000000003E-003
   1.6015801999999999        4.3859650000000003E-003
   1.6096052999999999        4.3859650000000003E-003
   1.6176181999999999        4.3859650000000003E-003
   1.6256189999999999        4.3859650000000003E-003
   1.6336078000000001        4.3859650000000003E-003
   1.6415843999999999        4.3859650000000003E-003
   1.6495491000000000        4.3859650000000003E-003
   1.6575017000000001        4.3859650000000003E-003
   1.6654422000000000        4.3859650000000003E-003
   1.6733707000000000        4.3859650000000003E-003
   1.6812872999999999        4.3859650000000003E-003
   1.6891917999999999        4.3859650000000003E-003
   1.6970844000000000        4.3859650000000003E-003
   1.7049650000000001        4.3859650000000003E-003
   1.7128337000000000        4.3859650000000003E-003
   1.7206904000000001        4.3859650000000003E-003
   1.7285352000000000        4.3859650000000003E-003
   1.7363681000000000        4.3859650000000003E-003
   1.7441891000000000        4.3859650000000003E-003
   1.7519982999999999        4.3859650000000003E-003
   1.7597955000000001        4.3859650000000003E-003
   1.7675809000000000        4.3859650000000003E-003
   1.7753544999999999        4.3859650000000003E-003
   1.7831162000000000        4.3859650000000003E-003
   1.7908660999999999        4.3859650000000003E-003
   1.7986042000000000        4.3859650000000003E-003
   1.8063305000000001        4.3859650000000003E-003
   1.8140451000000000        4.3859650000000003E-003
   1.8217478000000000        4.3859650000000003E-003
   1.8294389000000000        4.3859650000000003E-003
   1.8371181999999999        4.3859650000000003E-003
   1.8447857000000001        4.3859650000000003E-003
   1.8524415999999999        4.3859650000000003E-003
   1.8600857000000000        4.3859650000000003E-003
   1.8677182000000001        4.3859650000000003E-003
   1.8753390000000001        4.3859650000000003E-003
   1.8829482000000000        4.3859650000000003E-003
   1.8905457000000001        4.3859650000000003E-003
   1.8981315000000001        4.3859650000000003E-003
   1.9057058000000000        4.3859650000000003E-003
   1.9132684000000000        4.3859650000000003E-003
   1.9208194999999999        4.3859650000000003E-003
   1.9283589000000001        4.3859650000000003E-003
   1.9358868000000000        4.3859650000000003E-003
   1.9434031000000000        4.3859650000000003E-003
   1.9509079000000000        4.3859650000000003E-003
   1.9584012000000000        4.3859650000000003E-003
   1.9658830000000000        4.3859650000000003E-003
   1.9733532000000000        4.3859650000000003E-003
   1.9808120000000000        4.3859650000000003E-003
   1.9882593000000000        4.3859650000000003E-003
   1.9956951000000001        4.3859650000000003E-003
   2.0031194000000001        4.3859650000000003E-003
   2.0105324000000002        4.3859650000000003E-003
   2.0179338000000002        4.3859650000000003E-003
   2.0253239000000001        4.3859650000000003E-003
   2.0327025999999999        4.3859650000000003E-003
   2.0400699000000002        4.3859650000000003E-003
   2.0474258000000001        4.3859650000000003E-003
   2.0547704000000002        4.3859650000000003E-003
   2.0621035999999999        4.3859650000000003E-003
   2.0694254999999999        4.3859650000000003E-003
   2.0767359999999999        4.3859650000000003E-003
   2.0840352000000002        4.3859650000000003E-003
  0.94736832999999998        8.7719301000000003E-003
  0.95175430000000005        8.7719301000000003E-003
  0.95614025999999996        8.7719301000000003E-003
  0.96052623000000004        8.7719301000000003E-003
  0.96491218999999995        8.7719301000000003E-003
  0.96929816000000002        8.7719301000000003E-003
  0.97368412000000004        8.7719301000000003E-003
  0.97807009000000000        8.7719301000000003E-003
  0.98245605000000003        8.7719301000000003E-003
  0.98684201999999999        8.7719301000000003E-003
  0.99122798000000001        8.7719301000000003E-003
  0.99561394999999997        8.7719301000000003E-003
  0.99999990999999999        8.7719301000000003E-003
   1.0089199000000000        8.7719301000000003E-003
   1.0178267999999999        8.7719301000000003E-003
   1.0267206000000000        8.7719301000000003E-003
   1.0356014000000000        8.7719301000000003E-003
   1.0444690999999999        8.7719301000000003E-003
   1.0533237000000000        8.7719301000000003E-003
   1.0621653000000000        8.7719301000000003E-003
   1.0709940000000000        8.7719301000000003E-003
   1.0798095999999999        8.7719301000000003E-003
   1.0886122000000000        8.7719301000000003E-003
   1.0974018999999999        8.7719301000000003E-003
   1.1061786000000000        8.7719301000000003E-003
   1.1149423000000001        8.7719301000000003E-003
   1.1236931999999999        8.7719301000000003E-003
   1.1324311000000000        8.7719301000000003E-003
   1.1411560999999999        8.7719301000000003E-003
   1.1498682000000000        8.7719301000000003E-003
   1.1585675000000000        8.7719301000000003E-003
   1.1672539000000000        8.7719301000000003E-003
   1.1759275000000000        8.7719301000000003E-003
   1.1845882999999999        8.7719301000000003E-003
   1.1932362000000001        8.7719301000000003E-003
   1.2018713000000001        8.7719301000000003E-003
   1.2104937000000000        8.7719301000000003E-003
   1.2191033000000000        8.7719301000000003E-003
   1.2277001000000001        8.7719301000000003E-003
   1.2362842000000001        8.7719301000000003E-003
   1.2448554999999999        8.7719301000000003E-003
   1.2534141999999999        8.7719301000000003E-003
   1.2619601000000000        8.7719301000000003E-003
   1.2704933000000000        8.7719301000000003E-003
   1.2790139000000000        8.7719301000000003E-003
   1.2875217999999999        8.7719301000000003E-003
   1.2960171000000000        8.7719301000000003E-003
   1.3044998000000001        8.7719301000000003E-003
   1.3129698000000001        8.7719301000000003E-003
   1.3214272000000000        8.7719301000000003E-003
   1.3298721000000000        8.7719301000000003E-003
   1.3383042999999999        8.7719301000000003E-003
   1.3467240000000000        8.7719301000000003E-003
   1.3551312000000000        8.7719301000000003E-003
   1.3635257999999999        8.7719301000000003E-003
   1.3719079000000001        8.7719301000000003E-003
   1.3802775000000000        8.7719301000000003E-003
   1.3886347000000001        8.7719301000000003E-003
   1.3969792999999999        8.7719301000000003E-003
   1.4053115000000000        8.7719301000000003E-003
   1.4136312000000000        8.7719301000000003E-003
   1.4219385000000000        8.7719301000000003E-003
   1.4302333000000000        8.7719301000000003E-003
   1.4385158000000000        8.7719301000000003E-003
   1.4467859000000001        8.7719301000000003E-003
   1.4550434999999999        8.7719301000000003E-003
   1.4632887999999999        8.7719301000000003E-003
   1.4715218000000001        8.7719301000000003E-003
   1.4797423999999999        8.7719301000000003E-003
   1.4879507000000001        8.7719301000000003E-003
   1.4961466999999999        8.7719301000000003E-003
   1.5043304000000000        8.7719301000000003E-003
   1.5125017999999999        8.7719301000000003E-003
   1.5206609000000000        8.7719301000000003E-003
   1.5288078000000001        8.7719301000000003E-003
   1.5369424000000000        8.7719301000000003E-003
   1.5450648000000000        8.7719301000000003E-003
   1.5531750000000000        8.7719301000000003E-003
   1.5612729000000001        8.7719301000000003E-003
   1.5693587000000000        8.7719301000000003E-003
   1.5774322999999999        8.7719301000000003E-003
   1.5854938000000001        8.7719301000000003E-003
   1.5935431000000000        8.7719301000000003E-003
   1.6015801999999999        8.7719301000000003E-003
   1.6096052999999999        8.7719301000000003E-003
   1.6176181999999999        8.7719301000000003E-003
   1.6256189999999999        8.7719301000000003E-003
   1.6336078000000001        8.7719301000000003E-003
   1.6415843999999999        8.7719301000000003E-003
   1.6495491000000000        8.7719301000000003E-003
   1.6575017000000001        8.7719301000000003E-003
   1.6654422000000000        8.7719301000000003E-003
   1.6733707000000000        8.7719301000000003E-003
   1.6812872999999999        8.7719301000000003E-003
   1.6891917999999999        8.7719301000000003E-003
   1.6970844000000000        8.7719301000000003E-003
   1.7049650000000001        8.7719301000000003E-003
   1.7128337000000000        8.7719301000000003E-003
   1.7206904000000001        8.7719301000000003E-003
   1.7285352000000000        8.7719301000000003E-003
   1.7363681000000000        8.7719301000000003E-003
   1.7441891000000000        8.7719301000000003E-003
   1.7519982999999999        8.7719301000000003E-003
   1.7597955000000001        8.7719301000000003E-003
   1.7675809000000000        8.7719301000000003E-003
   1.7753544999999999        8.7719301000000003E-003
   1.7831162000000000        8.7719301000000003E-003
   1.7908660999999999        8.7719301000000003E-003
   1.7986042000000000        8.7719301000000003E-003
   1.8063305000000001        8.7719301000000003E-003
   1.8140451000000000        8.7719301000000003E-003
   1.8217478000000000        8.7719301000000003E-003
   1.8294389000000000        8.7719301000000003E-003
   1.8371181999999999        8.7719301000000003E-003
   1.8447857000000001        8.7719301000000003E-003
   1.8524415999999999        8.7719301000000003E-003
   1.8600857000000000        8.7719301000000003E-003
   1.8677182000000001        8.7719301000000003E-003
   1.8753390000000001        8.7719301000000003E-003
   1.8829482000000000        8.7719301000000003E-003
   1.8905457000000001        8.7719301000000003E-003
   1.8981315000000001        8.7719301000000003E-003
   1.9057058000000000        8.7719301000000003E-003
   1.9132684000000000        8.7719301000000003E-003
   1.9208194999999999        8.7719301000000003E-003
   1.9283589000000001        8.7719301000000003E-003
   1.9358868000000000        8.7719301000000003E-003
   1.9434031000000000        8.7719301000000003E-003
   1.9509079000000000        8.7719301000000003E-003
   1.9584012000000000        8.7719301000000003E-003
   1.9658830000000000        8.7719301000000003E-003
   1.9733532000000000        8.7719301000000003E-003
   1.9808120000000000        8.7719301000000003E-003
   1.9882593000000000        8.7719301000000003E-003
   1.9956951000000001        8.7719301000000003E-003
   2.0031194000000001        8.7719301000000003E-003
   2.0105324000000002        8.7719301000000003E-003
   2.0179338000000002        8.7719301000000003E-003
   2.0253239000000001        8.7719301000000003E-003
   2.0327025999999999        8.7719301000000003E-003
   2.0400699000000002        8.7719301000000003E-003
   2.0474258000000001        8.7719301000000003E-003
   2.0547704000000002        8.7719301000000003E-003
   2.0621035999999999        8.7719301000000003E-003
   2.0694254999999999        8.7719301000000003E-003
   2.0767359999999999        8.7719301000000003E-003
   2.0840352000000002        8.7719301000000003E-003
  0.94736832999999998        1.3157894999999999E-002
  0.95175430000000005        1.3157894999999999E-002
  0.95614025999999996        1.3157894999999999E-002
  0.96052623000000004        1.3157894999999999E-002
  0.96491218999999995        1.3157894999999999E-002
  0.96929816000000002        1.3157894999999999E-002
  0.97368412000000004        1.3157894999999999E-002
  0.97807009000000000        1.3157894999999999E-002
  0.98245605000000003        1.3157894999999999E-002
  0.98684201999999999        1.3157894999999999E-002
  0.99122798000000001        1.3157894999999999E-002
  0.99561394999999997        1.3157894999999999E-002
  0.99999990999999999        1.3157894999999999E-002
   1.0089199000000000        1.3157894999999999E-002
   1.0178267999999999        1.3157894999999999E-002
   1.0267206000000000        1.3157894999999999E-002
   1.0356014000000000        1.3157894999999999E-002
   1.0444690999999999        1.3157894999999999E-002
   1.0533237000000000        1.3157894999999999E-002
   1.0621653000000000        1.3157894999999999E-002
   1.0709940000000000        1.3157894999999999E-002
   1.0798095999999999        1.3157894999999999E-002
   1.0886122000000000        1.3157894999999999E-002
   1.0974018999999999        1.3157894999999999E-002
   1.1061786000000000        1.3157894999999999E-002
   1.1149423000000001        1.3157894999999999E-002
   1.1236931999999999        1.3157894999999999E-002
   1.1324311000000000        1.3157894999999999E-002
   1.1411560999999999        1.3157894999999999E-002
   1.1498682000000000        1.3157894999999999E-002
   1.1585675000000000        1.3157894999999999E-002
   1.1672539000000000        1.3157894999999999E-002
   1.1759275000000000        1.3157894999999999E-002
   1.1845882999999999        1.3157894999999999E-002
   1.1932362000000001        1.3157894999999999E-002
   1.2018713000000001        1.3157894999999999E-002
   1.2104937000000000        1.3157894999999999E-002
   1.2191033000000000        1.3157894999999999E-002
   1.2277001000000001        1.3157894999999999E-002
   1.2362842000000001        1.3157894999999999E-002
   1.2448554999999999        1.3157894999999999E-002
   1.2534141999999999        1.3157894999999999E-002
   1.2619601000000000        1.3157894999999999E-002
   1.2704933000000000        1.3157894999999999E-002
   1.2790139000000000        1.3157894999999999E-002
   1.2875217999999999        1.3157894999999999E-002
   1.2960171000000000        1.3157894999999999E-002
   1.3044998000000001        1.3157894999999999E-002
   1.3129698000000001        1.3157894999999999E-002
   1.3214272000000000        1.3157894999999999E-002
   1.3298721000000000        1.3157894999999999E-002
   1.3383042999999999        1.3157894999999999E-002
   1.3467240000000000        1.3157894999999999E-002
   1.3551312000000000        1.3157894999999999E-002
   1.3635257999999999        1.3157894999999999E-002
   1.3719079000000001        1.3157894999999999E-002
   1.3802775000000000        1.3157894999999999E-002
   1.3886347000000001        1.3157894999999999E-002
   1.3969792999999999        1.3157894999999999E-002
   1.4053115000000000        1.3157894999999999E-002
   1.4136312000000000        1.3157894999999999E-002
   1.4219385000000000        1.3157894999999999E-002
   1.4302333000000000        1.3157894999999999E-002
   1.4385158000000000        1.3157894999999999E-002
   1.4467859000000001        1.3157894999999999E-002
   1.4550434999999999        1.3157894999999999E-002
   1.4632887999999999        1.3157894999999999E-002
   1.4715218000000001        1.3157894999999999E-002
   1.4797423999999999        1.3157894999999999E-002
   1.4879507000000001        1.3157894999999999E-002
   1.4961466999999999        1.3157894999999999E-002
   1.5043304000000000        1.3157894999999999E-002
   1.5125017999999999        1.3157894999999999E-002
   1.5206609000000000        1.3157894999999999E-002
   1.5288078000000001        1.3157894999999999E-002
   1.5369424000000000        1.3157894999999999E-002
   1.5450648000000000        1.3157894999999999E-002
   1.5531750000000000        1.3157894999999999E-002
   1.5612729000000001        1.3157894999999999E-002
   1.5693587000000000        1.3157894999999999E-002
   1.5774322999999999        1.3157894999999999E-002
   1.5854938000000001        1.3157894999999999E-002
   1.5935431000000000        1.3157894999999999E-002
   1.6015801999999999        1.3157894999999999E-002
   1.6096052999999999        1.3157894999999999E-002
   1.6176181999999999        1.3157894999999999E-002
   1.6256189999999999        1.3157894999999999E-002
   1.6336078000000001        1.3157894999999999E-002
   1.6415843999999999        1.3157894999999999E-002
   1.6495491000000000        1.3157894999999999E-002
   1.6575017000000001        1.3157894999999999E-002
   1.6654422000000000        1.3157894999999999E-002
   1.6733707000000000        1.3157894999999999E-002
   1.6812872999999999        1.3157894999999999E-002
   1.6891917999999999        1.3157894999999999E-002
   1.6970844000000000        1.3157894999999999E-002
   1.7049650000000001        1.3157894999999999E-002
   1.7128337000000000        1.3157894999999999E-002
   1.7206904000000001        1.3157894999999999E-002
   1.7285352000000000        1.3157894999999999E-002
   1.7363681000000000        1.3157894999999999E-002
   1.7441891000000000        1.3157894999999999E-002
   1.7519982999999999        1.3157894999999999E-002
   1.7597955000000001        1.3157894999999999E-002
   1.7675809000000000        1.3157894999999999E-002
   1.7753544999999999        1.3157894999999999E-002
   1.7831162000000000        1.3157894999999999E-002
   1.7908660999999999        1.3157894999999999E-002
   1.7986042000000000        1.3157894999999999E-002
   1.8063305000000001        1.3157894999999999E-002
   1.8140451000000000        1.3157894999999999E-002
   1.8217478000000000        1.3157894999999999E-002
   1.8294389000000000        1.3157894999999999E-002
   1.8371181999999999        1.3157894999999999E-002
   1.8447857000000001        1.3157894999999999E-002
   1.8524415999999999        1.3157894999999999E-002
   1.8600857000000000        1.3157894999999999E-002
   1.8677182000000001        1.3157894999999999E-002
   1.8753390000000001        1.3157894999999999E-002
   1.8829482000000000        1.3157894999999999E-002
   1.8905457000000001        1.3157894999999999E-002
   1.8981315000000001        1.3157894999999999E-002
   1.9057058000000000        1.3157894999999999E-002