 TITLE = "GRIDBLO_BC0019"
 VARIABLES = "X","Y"
ZONE I=    77,J=   127  ,DATAPACKING=POINT
   2.0400699000000002        4.4642859139999999E-003
   2.0474258000000001        4.4642859139999999E-003
   2.0547704000000002        4.4642859139999999E-003
   2.0621035999999999        4.4642859139999999E-003
   2.0694254999999999        4.4642859139999999E-003
   2.0767359999999999        4.4642859139999999E-003
   2.0840352000000002        4.4642859139999999E-003
   2.0913232000000002        4.4642859139999999E-003
   2.0985998000000001        4.4642859139999999E-003
   2.1058652000000002        4.4642859139999999E-003
   2.1131193000000001        4.4642859139999999E-003
   2.1203620999999999        4.4642859139999999E-003
   2.1275938000000001        4.4642859139999999E-003
   2.1348142000000001        4.4642859139999999E-003
   2.1420233999999998        4.4642859139999999E-003
   2.1492214000000001        4.4642859139999999E-003
   2.1564082000000000        4.4642859139999999E-003
   2.1635838000000001        4.4642859139999999E-003
   2.1707483000000001        4.4642859139999999E-003
   2.1779016000000002        4.4642859139999999E-003
   2.1850437999999999        4.4642859139999999E-003
   2.1921748999999999        4.4642859139999999E-003
   2.1992948000000001        4.4642859139999999E-003
   2.2064037000000001        4.4642859139999999E-003
   2.2135014000000002        4.4642859139999999E-003
   2.2205881000000001        4.4642859139999999E-003
   2.2276638000000002        4.4642859139999999E-003
   2.2347283999999998        4.4642859139999999E-003
   2.2417818999999999        4.4642859139999999E-003
   2.2488244000000002        4.4642859139999999E-003
   2.2558560000000001        4.4642859139999999E-003
   2.2628765000000000        4.4642859139999999E-003
   2.2698860000000001        4.4642859139999999E-003
   2.2768845999999998        4.4642859139999999E-003
   2.2838721999999998        4.4642859139999999E-003
   2.2908488000000000        4.4642859139999999E-003
   2.2978144999999999        4.4642859139999999E-003
   2.3047692999999998        4.4642859139999999E-003
   2.3117131999999998        4.4642859139999999E-003
   2.3186461000000000        4.4642859139999999E-003
   2.3255682000000002        4.4642859139999999E-003
   2.3324794000000000        4.4642859139999999E-003
   2.3393798000000001        4.4642859139999999E-003
   2.3462692999999999        4.4642859139999999E-003
   2.3531479000000002        4.4642859139999999E-003
   2.3600156999999999        4.4642859139999999E-003
   2.3668727999999999        4.4642859139999999E-003
   2.3737189999999999        4.4642859139999999E-003
   2.3805543999999998        4.4642859139999999E-003
   2.3873790000000001        4.4642859139999999E-003
   2.3941929000000002        4.4642859139999999E-003
   2.4009960000000001        4.4642859139999999E-003
   2.4077883999999998        4.4642859139999999E-003
   2.4145699999999999        4.4642859139999999E-003
   2.4213410000000000        4.4642859139999999E-003
   2.4281012000000000        4.4642859139999999E-003
   2.4348507000000001        4.4642859139999999E-003
   2.4415895999999999        4.4642859139999999E-003
   2.4483177999999999        4.4642859139999999E-003
   2.4550353000000000        4.4642859139999999E-003
   2.4617422000000002        4.4642859139999999E-003
   2.4684384000000001        4.4642859139999999E-003
   2.4751240000000001        4.4642859139999999E-003
   2.4817990000000001        4.4642859139999999E-003
   2.4884634999999999        4.4642859139999999E-003
   2.4951173000000000        4.4642859139999999E-003
   2.5017605000000001        4.4642859139999999E-003
   2.5083932000000000        4.4642859139999999E-003
   2.5150153999999998        4.4642859139999999E-003
   2.5216270000000001        4.4642859139999999E-003
   2.5282281000000002        4.4642859139999999E-003
   2.5348185999999999        4.4642859139999999E-003
   2.5413986999999998        4.4642859139999999E-003
   2.5479683000000000        4.4642859139999999E-003
   2.5545274000000000        4.4642859139999999E-003
   2.5610759999999999        4.4642859139999999E-003
   2.5676142000000000        4.4642859139999999E-003
   2.0400699000000002        4.3859650000000003E-003
   2.0474258000000001        4.3859650000000003E-003
   2.0547704000000002        4.3859650000000003E-003
   2.0621035999999999        4.3859650000000003E-003
   2.0694254999999999        4.3859650000000003E-003
   2.0767359999999999        4.3859650000000003E-003
   2.0840352000000002        4.3859650000000003E-003
   2.0913232000000002        4.3859650000000003E-003
   2.0985998000000001        4.3859650000000003E-003
   2.1058652000000002        4.3859650000000003E-003
   2.1131193000000001        4.3859650000000003E-003
   2.1203620999999999        4.3859650000000003E-003
   2.1275938000000001        4.3859650000000003E-003
   2.1348142000000001        4.3859650000000003E-003
   2.1420233999999998        4.3859650000000003E-003
   2.1492214000000001        4.3859650000000003E-003
   2.1564082000000000        4.3859650000000003E-003
   2.1635838000000001        4.3859650000000003E-003
   2.1707483000000001        4.3859650000000003E-003
   2.1779016000000002        4.3859650000000003E-003
   2.1850437999999999        4.3859650000000003E-003
   2.1921748999999999        4.3859650000000003E-003
   2.1992948000000001        4.3859650000000003E-003
   2.2064037000000001        4.3859650000000003E-003
   2.2135014000000002        4.3859650000000003E-003
   2.2205881000000001        4.3859650000000003E-003
   2.2276638000000002        4.3859650000000003E-003
   2.2347283999999998        4.3859650000000003E-003
   2.2417818999999999        4.3859650000000003E-003
   2.2488244000000002        4.3859650000000003E-003
   2.2558560000000001        4.3859650000000003E-003
   2.2628765000000000        4.3859650000000003E-003
   2.2698860000000001        4.3859650000000003E-003
   2.2768845999999998        4.3859650000000003E-003
   2.2838721999999998        4.3859650000000003E-003
   2.2908488000000000        4.3859650000000003E-003
   2.2978144999999999        4.3859650000000003E-003
   2.3047692999999998        4.3859650000000003E-003
   2.3117131999999998        4.3859650000000003E-003
   2.3186461000000000        4.3859650000000003E-003
   2.3255682000000002        4.3859650000000003E-003
   2.3324794000000000        4.3859650000000003E-003
   2.3393798000000001        4.3859650000000003E-003
   2.3462692999999999        4.3859650000000003E-003
   2.3531479000000002        4.3859650000000003E-003
   2.3600156999999999        4.3859650000000003E-003
   2.3668727999999999        4.3859650000000003E-003
   2.3737189999999999        4.3859650000000003E-003
   2.3805543999999998        4.3859650000000003E-003
   2.3873790000000001        4.3859650000000003E-003
   2.3941929000000002        4.3859650000000003E-003
   2.4009960000000001        4.3859650000000003E-003
   2.4077883999999998        4.3859650000000003E-003
   2.4145699999999999        4.3859650000000003E-003
   2.4213410000000000        4.3859650000000003E-003
   2.4281012000000000        4.3859650000000003E-003
   2.4348507000000001        4.3859650000000003E-003
   2.4415895999999999        4.3859650000000003E-003
   2.4483177999999999        4.3859650000000003E-003
   2.4550353000000000        4.3859650000000003E-003
   2.4617422000000002        4.3859650000000003E-003
   2.4684384000000001        4.3859650000000003E-003
   2.4751240000000001        4.3859650000000003E-003
   2.4817990000000001        4.3859650000000003E-003
   2.4884634999999999        4.3859650000000003E-003
   2.4951173000000000        4.3859650000000003E-003
   2.5017605000000001        4.3859650000000003E-003
   2.5083932000000000        4.3859650000000003E-003
   2.5150153999999998        4.3859650000000003E-003
   2.5216270000000001        4.3859650000000003E-003
   2.5282281000000002        4.3859650000000003E-003
   2.5348185999999999        4.3859650000000003E-003
   2.5413986999999998        4.3859650000000003E-003
   2.5479683000000000        4.3859650000000003E-003
   2.5545274000000000        4.3859650000000003E-003
   2.5610759999999999        4.3859650000000003E-003
   2.5676142000000000        4.3859650000000003E-003
   2.0400699000000002        8.7719301000000003E-003
   2.0474258000000001        8.7719301000000003E-003
   2.0547704000000002        8.7719301000000003E-003
   2.0621035999999999        8.7719301000000003E-003
   2.0694254999999999        8.7719301000000003E-003
   2.0767359999999999        8.7719301000000003E-003
   2.0840352000000002        8.7719301000000003E-003
   2.0913232000000002        8.7719301000000003E-003
   2.0985998000000001        8.7719301000000003E-003
   2.1058652000000002        8.7719301000000003E-003
   2.1131193000000001        8.7719301000000003E-003
   2.1203620999999999        8.7719301000000003E-003
   2.1275938000000001        8.7719301000000003E-003
   2.1348142000000001        8.7719301000000003E-003
   2.1420233999999998        8.7719301000000003E-003
   2.1492214000000001        8.7719301000000003E-003
   2.1564082000000000        8.7719301000000003E-003
   2.1635838000000001        8.7719301000000003E-003
   2.1707483000000001        8.7719301000000003E-003
   2.1779016000000002        8.7719301000000003E-003
   2.1850437999999999        8.7719301000000003E-003
   2.1921748999999999        8.7719301000000003E-003
   2.1992948000000001        8.7719301000000003E-003
   2.2064037000000001        8.7719301000000003E-003
   2.2135014000000002        8.7719301000000003E-003
   2.2205881000000001        8.7719301000000003E-003
   2.2276638000000002        8.7719301000000003E-003
   2.2347283999999998        8.7719301000000003E-003
   2.2417818999999999        8.7719301000000003E-003
   2.2488244000000002        8.7719301000000003E-003
   2.2558560000000001        8.7719301000000003E-003
   2.2628765000000000        8.7719301000000003E-003
   2.2698860000000001        8.7719301000000003E-003
   2.2768845999999998        8.7719301000000003E-003
   2.2838721999999998        8.7719301000000003E-003
   2.2908488000000000        8.7719301000000003E-003
   2.2978144999999999        8.7719301000000003E-003
   2.3047692999999998        8.7719301000000003E-003
   2.3117131999999998        8.7719301000000003E-003
   2.3186461000000000        8.7719301000000003E-003
   2.3255682000000002        8.7719301000000003E-003
   2.3324794000000000        8.7719301000000003E-003
   2.3393798000000001        8.7719301000000003E-003
   2.3462692999999999        8.7719301000000003E-003
   2.3531479000000002        8.7719301000000003E-003
   2.3600156999999999        8.7719301000000003E-003
   2.3668727999999999        8.7719301000000003E-003
   2.3737189999999999        8.7719301000000003E-003
   2.3805543999999998        8.7719301000000003E-003
   2.3873790000000001        8.7719301000000003E-003
   2.3941929000000002        8.7719301000000003E-003
   2.4009960000000001        8.7719301000000003E-003
   2.4077883999999998        8.7719301000000003E-003
   2.4145699999999999        8.7719301000000003E-003
   2.4213410000000000        8.7719301000000003E-003
   2.4281012000000000        8.7719301000000003E-003
   2.4348507000000001        8.7719301000000003E-003
   2.4415895999999999        8.7719301000000003E-003
   2.4483177999999999        8.7719301000000003E-003
   2.4550353000000000        8.7719301000000003E-003
   2.4617422000000002        8.7719301000000003E-003
   2.4684384000000001        8.7719301000000003E-003
   2.4751240000000001        8.7719301000000003E-003
   2.4817990000000001        8.7719301000000003E-003
   2.4884634999999999        8.7719301000000003E-003
   2.4951173000000000        8.7719301000000003E-003
   2.5017605000000001        8.7719301000000003E-003
   2.5083932000000000        8.7719301000000003E-003
   2.5150153999999998        8.7719301000000003E-003
   2.5216270000000001        8.7719301000000003E-003
   2.5282281000000002        8.7719301000000003E-003
   2.5348185999999999        8.7719301000000003E-003
   2.5413986999999998        8.7719301000000003E-003
   2.5479683000000000        8.7719301000000003E-003
   2.5545274000000000        8.7719301000000003E-003
   2.5610759999999999        8.7719301000000003E-003
   2.5676142000000000        8.7719301000000003E-003
   2.0400699000000002        1.3157894999999999E-002
   2.0474258000000001        1.3157894999999999E-002
   2.0547704000000002        1.3157894999999999E-002
   2.0621035999999999        1.3157894999999999E-002
   2.0694254999999999        1.3157894999999999E-002
   2.0767359999999999        1.3157894999999999E-002
   2.0840352000000002        1.3157894999999999E-002
   2.0913232000000002        1.3157894999999999E-002
   2.0985998000000001        1.3157894999999999E-002
   2.1058652000000002        1.3157894999999999E-002
   2.1131193000000001        1.3157894999999999E-002
   2.1203620999999999        1.3157894999999999E-002
   2.1275938000000001        1.3157894999999999E-002
   2.1348142000000001        1.3157894999999999E-002
   2.1420233999999998        1.3157894999999999E-002
   2.1492214000000001        1.3157894999999999E-002
   2.1564082000000000        1.3157894999999999E-002
   2.1635838000000001        1.3157894999999999E-002
   2.1707483000000001        1.3157894999999999E-002
   2.1779016000000002        1.3157894999999999E-002
   2.1850437999999999        1.3157894999999999E-002
   2.1921748999999999        1.3157894999999999E-002
   2.1992948000000001        1.3157894999999999E-002
   2.2064037000000001        1.3157894999999999E-002
   2.2135014000000002        1.3157894999999999E-002
   2.2205881000000001        1.3157894999999999E-002
   2.2276638000000002        1.3157894999999999E-002
   2.2347283999999998        1.3157894999999999E-002
   2.2417818999999999        1.3157894999999999E-002
   2.2488244000000002        1.3157894999999999E-002
   2.2558560000000001        1.3157894999999999E-002
   2.2628765000000000        1.3157894999999999E-002
   2.2698860000000001        1.3157894999999999E-002
   2.2768845999999998        1.3157894999999999E-002
   2.2838721999999998        1.3157894999999999E-002
   2.2908488000000000        1.3157894999999999E-002
   2.2978144999999999        1.3157894999999999E-002
   2.3047692999999998        1.3157894999999999E-002
   2.3117131999999998        1.3157894999999999E-002
   2.3186461000000000        1.3157894999999999E-002
   2.3255682000000002        1.3157894999999999E-002
   2.3324794000000000        1.3157894999999999E-002
   2.3393798000000001        1.3157894999999999E-002
   2.3462692999999999        1.3157894999999999E-002
   2.3531479000000002        1.3157894999999999E-002
   2.3600156999999999        1.3157894999999999E-002
   2.3668727999999999        1.3157894999999999E-002
   2.3737189999999999        1.3157894999999999E-002
   2.3805543999999998        1.3157894999999999E-002
   2.3873790000000001        1.3157894999999999E-002
   2.3941929000000002        1.3157894999999999E-002
   2.4009960000000001        1.3157894999999999E-002
   2.4077883999999998        1.3157894999999999E-002
   2.4145699999999999        1.3157894999999999E-002
   2.4213410000000000        1.3157894999999999E-002
   2.4281012000000000        1.3157894999999999E-002
   2.4348507000000001        1.3157894999999999E-002
   2.4415895999999999        1.3157894999999999E-002
   2.4483177999999999        1.3157894999999999E-002
   2.4550353000000000        1.3157894999999999E-002
   2.4617422000000002        1.3157894999999999E-002
   2.4684384000000001        1.3157894999999999E-002
   2.4751240000000001        1.3157894999999999E-002
   2.4817990000000001        1.3157894999999999E-002
   2.4884634999999999        1.3157894999999999E-002
   2.4951173000000000        1.3157894999999999E-002
   2.5017605000000001        1.3157894999999999E-002
   2.5083932000000000        1.3157894999999999E-002
   2.5150153999999998        1.3157894999999999E-002
   2.5216270000000001        1.3157894999999999E-002
   2.5282281000000002        1.3157894999999999E-002
   2.5348185999999999        1.3157894999999999E-002
   2.5413986999999998        1.3157894999999999E-002
   2.5479683000000000        1.3157894999999999E-002
   2.5545274000000000        1.3157894999999999E-002
   2.5610759999999999        1.3157894999999999E-002
   2.5676142000000000        1.3157894999999999E-002
   2.0400699000000002        1.7543860000000001E-002
   2.0474258000000001        1.7543860000000001E-002
   2.0547704000000002        1.7543860000000001E-002
   2.0621035999999999        1.7543860000000001E-002
   2.0694254999999999        1.7543860000000001E-002
   2.0767359999999999        1.7543860000000001E-002
   2.0840352000000002        1.7543860000000001E-002
   2.0913232000000002        1.7543860000000001E-002
   2.0985998000000001        1.7543860000000001E-002
   2.1058652000000002        1.7543860000000001E-002
   2.1131193000000001        1.7543860000000001E-002
   2.1203620999999999        1.7543860000000001E-002
   2.1275938000000001        1.7543860000000001E-002
   2.1348142000000001        1.7543860000000001E-002
   2.1420233999999998        1.7543860000000001E-002
   2.1492214000000001        1.7543860000000001E-002
   2.1564082000000000        1.7543860000000001E-002
   2.1635838000000001        1.7543860000000001E-002
   2.1707483000000001        1.7543860000000001E-002
   2.1779016000000002        1.7543860000000001E-002
   2.1850437999999999        1.7543860000000001E-002
   2.1921748999999999        1.7543860000000001E-002
   2.1992948000000001        1.7543860000000001E-002
   2.2064037000000001        1.7543860000000001E-002
   2.2135014000000002        1.7543860000000001E-002
   2.2205881000000001        1.7543860000000001E-002
   2.2276638000000002        1.7543860000000001E-002
   2.2347283999999998        1.7543860000000001E-002
   2.2417818999999999        1.7543860000000001E-002
   2.2488244000000002        1.7543860000000001E-002
   2.2558560000000001        1.7543860000000001E-002
   2.2628765000000000        1.7543860000000001E-002
   2.2698860000000001        1.7543860000000001E-002
   2.2768845999999998        1.7543860000000001E-002
   2.2838721999999998        1.7543860000000001E-002
   2.2908488000000000        1.7543860000000001E-002
   2.2978144999999999        1.7543860000000001E-002
   2.3047692999999998        1.7543860000000001E-002
   2.3117131999999998        1.7543860000000001E-002
   2.3186461000000000        1.7543860000000001E-002
   2.3255682000000002        1.7543860000000001E-002
   2.3324794000000000        1.7543860000000001E-002
   2.3393798000000001        1.7543860000000001E-002
   2.3462692999999999        1.7543860000000001E-002
   2.3531479000000002        1.7543860000000001E-002
   2.3600156999999999        1.7543860000000001E-002
   2.3668727999999999        1.7543860000000001E-002
   2.3737189999999999        1.7543860000000001E-002
   2.3805543999999998        1.7543860000000001E-002
   2.3873790000000001        1.7543860000000001E-002
   2.3941929000000002        1.7543860000000001E-002
   2.4009960000000001        1.7543860000000001E-002
   2.4077883999999998        1.7543860000000001E-002
   2.4145699999999999        1.7543860000000001E-002
   2.4213410000000000        1.7543860000000001E-002
   2.4281012000000000        1.7543860000000001E-002
   2.4348507000000001        1.7543860000000001E-002
   2.4415895999999999        1.7543860000000001E-002
   2.4483177999999999        1.7543860000000001E-002
   2.4550353000000000        1.7543860000000001E-002
   2.4617422000000002        1.7543860000000001E-002
   2.4684384000000001        1.7543860000000001E-002
   2.4751240000000001        1.7543860000000001E-002
   2.4817990000000001        1.7543860000000001E-002
   2.4884634999999999        1.7543860000000001E-002
   2.4951173000000000        1.7543860000000001E-002
   2.5017605000000001        1.7543860000000001E-002
   2.5083932000000000        1.7543860000000001E-002
   2.5150153999999998        1.7543860000000001E-002
   2.5216270000000001        1.7543860000000001E-002
   2.5282281000000002        1.7543860000000001E-002
   2.5348185999999999        1.7543860000000001E-002
   2.5413986999999998        1.7543860000000001E-002
   2.5479683000000000        1.7543860000000001E-002
   2.5545274000000000        1.7543860000000001E-002
   2.5610759999999999        1.7543860000000001E-002
   2.5676142000000000        1.7543860000000001E-002
   2.0400699000000002        2.1929825000000000E-002
   2.0474258000000001        2.1929825000000000E-002
   2.0547704000000002        2.1929825000000000E-002
   2.0621035999999999        2.1929825000000000E-002
   2.0694254999999999        2.1929825000000000E-002
   2.0767359999999999        2.1929825000000000E-002
   2.0840352000000002        2.1929825000000000E-002
   2.0913232000000002        2.1929825000000000E-002
   2.0985998000000001        2.1929825000000000E-002
   2.1058652000000002        2.1929825000000000E-002
   2.1131193000000001        2.1929825000000000E-002
   2.1203620999999999        2.1929825000000000E-002
   2.1275938000000001        2.1929825000000000E-002
   2.1348142000000001        2.1929825000000000E-002
   2.1420233999999998        2.1929825000000000E-002
   2.1492214000000001        2.1929825000000000E-002
   2.1564082000000000        2.1929825000000000E-002
   2.1635838000000001        2.1929825000000000E-002
   2.1707483000000001        2.1929825000000000E-002
   2.1779016000000002        2.1929825000000000E-002
   2.1850437999999999        2.1929825000000000E-002
   2.1921748999999999        2.1929825000000000E-002
   2.1992948000000001        2.1929825000000000E-002
   2.2064037000000001        2.1929825000000000E-002
   2.2135014000000002        2.1929825000000000E-002
   2.2205881000000001        2.1929825000000000E-002
   2.2276638000000002        2.1929825000000000E-002
   2.2347283999999998        2.1929825000000000E-002
   2.2417818999999999        2.1929825000000000E-002
   2.2488244000000002        2.1929825000000000E-002
   2.2558560000000001        2.1929825000000000E-002
   2.2628765000000000        2.1929825000000000E-002
   2.2698860000000001        2.1929825000000000E-002
   2.2768845999999998        2.1929825000000000E-002
   2.2838721999999998        2.1929825000000000E-002
   2.2908488000000000        2.1929825000000000E-002
   2.2978144999999999        2.1929825000000000E-002
   2.3047692999999998        2.1929825000000000E-002
   2.3117131999999998        2.1929825000000000E-002
   2.3186461000000000        2.1929825000000000E-002
   2.3255682000000002        2.1929825000000000E-002
   2.3324794000000000        2.1929825000000000E-002
   2.3393798000000001        2.1929825000000000E-002
   2.3462692999999999        2.1929825000000000E-002
   2.3531479000000002        2.1929825000000000E-002
   2.3600156999999999        2.1929825000000000E-002
   2.3668727999999999        2.1929825000000000E-002
   2.3737189999999999        2.1929825000000000E-002
   2.3805543999999998        2.1929825000000000E-002
   2.3873790000000001        2.1929825000000000E-002
   2.3941929000000002        2.1929825000000000E-002
   2.4009960000000001        2.1929825000000000E-002
   2.4077883999999998        2.1929825000000000E-002
   2.4145699999999999        2.1929825000000000E-002
   2.4213410000000000        2.1929825000000000E-002
   2.4281012000000000        2.1929825000000000E-002
   2.4348507000000001        2.1929825000000000E-002
   2.4415895999999999        2.1929825000000000E-002
   2.4483177999999999        2.1929825000000000E-002
   2.4550353000000000        2.1929825000000000E-002
   2.4617422000000002        2.1929825000000000E-002
   2.4684384000000001        2.1929825000000000E-002
   2.4751240000000001        2.1929825000000000E-002
   2.4817990000000001        2.1929825000000000E-002
   2.4884634999999999        2.1929825000000000E-002
   2.4951173000000000        2.1929825000000000E-002
   2.5017605000000001        2.1929825000000000E-002
   2.5083932000000000        2.1929825000000000E-002
   2.5150153999999998        2.1929825000000000E-002
   2.5216270000000001        2.1929825000000000E-002
   2.5282281000000002        2.1929825000000000E-002
   2.5348185999999999        2.1929825000000000E-002
   2.5413986999999998        2.1929825000000000E-002
   2.5479683000000000        2.1929825000000000E-002
   2.5545274000000000        2.1929825000000000E-002
   2.5610759999999999        2.1929825000000000E-002
   2.5676142000000000        2.1929825000000000E-002
   2.0400699000000002        2.6315789999999999E-002
   2.0474258000000001        2.6315789999999999E-002
   2.0547704000000002        2.6315789999999999E-002
   2.0621035999999999        2.6315789999999999E-002
   2.0694254999999999        2.6315789999999999E-002
   2.0767359999999999        2.6315789999999999E-002
   2.0840352000000002        2.6315789999999999E-002
   2.0913232000000002        2.6315789999999999E-002
   2.0985998000000001        2.6315789999999999E-002
   2.1058652000000002        2.6315789999999999E-002
   2.1131193000000001        2.6315789999999999E-002
   2.1203620999999999        2.6315789999999999E-002
   2.1275938000000001        2.6315789999999999E-002
   2.1348142000000001        2.6315789999999999E-002
   2.1420233999999998        2.6315789999999999E-002
   2.1492214000000001        2.6315789999999999E-002
   2.1564082000000000        2.6315789999999999E-002
   2.1635838000000001        2.6315789999999999E-002
   2.1707483000000001        2.6315789999999999E-002
   2.1779016000000002        2.6315789999999999E-002
   2.1850437999999999        2.6315789999999999E-002
   2.1921748999999999        2.6315789999999999E-002
   2.1992948000000001        2.6315789999999999E-002
   2.2064037000000001        2.6315789999999999E-002
   2.2135014000000002        2.6315789999999999E-002
   2.2205881000000001        2.6315789999999999E-002
   2.2276638000000002        2.6315789999999999E-002
   2.2347283999999998        2.6315789999999999E-002
   2.2417818999999999        2.6315789999999999E-002
   2.2488244000000002        2.6315789999999999E-002
   2.2558560000000001        2.6315789999999999E-002
   2.2628765000000000        2.6315789999999999E-002
   2.2698860000000001        2.6315789999999999E-002
   2.2768845999999998        2.6315789999999999E-002
   2.2838721999999998        2.6315789999999999E-002
   2.2908488000000000        2.6315789999999999E-002
   2.2978144999999999        2.6315789999999999E-002
   2.3047692999999998        2.6315789999999999E-002
   2.3117131999999998        2.6315789999999999E-002
   2.3186461000000000        2.6315789999999999E-002
   2.3255682000000002        2.6315789999999999E-002
   2.3324794000000000        2.6315789999999999E-002
   2.3393798000000001        2.6315789999999999E-002
   2.3462692999999999        2.6315789999999999E-002
   2.3531479000000002        2.6315789999999999E-002
   2.3600156999999999        2.6315789999999999E-002
   2.3668727999999999        2.6315789999999999E-002
   2.3737189999999999        2.6315789999999999E-002
   2.3805543999999998        2.6315789999999999E-002
   2.3873790000000001        2.6315789999999999E-002
   2.3941929000000002        2.6315789999999999E-002
   2.4009960000000001        2.6315789999999999E-002
   2.4077883999999998        2.6315789999999999E-002
   2.4145699999999999        2.6315789999999999E-002
   2.4213410000000000        2.6315789999999999E-002
   2.4281012000000000        2.6315789999999999E-002
   2.4348507000000001        2.6315789999999999E-002
   2.4415895999999999        2.6315789999999999E-002
   2.4483177999999999        2.6315789999999999E-002
   2.4550353000000000        2.6315789999999999E-002
   2.4617422000000002        2.6315789999999999E-002
   2.4684384000000001        2.6315789999999999E-002
   2.4751240000000001        2.6315789999999999E-002
   2.4817990000000001        2.6315789999999999E-002
   2.4884634999999999        2.6315789999999999E-002
   2.4951173000000000        2.6315789999999999E-002
   2.5017605000000001        2.6315789999999999E-002
   2.5083932000000000        2.6315789999999999E-002
   2.5150153999999998        2.6315789999999999E-002
   2.5216270000000001        2.6315789999999999E-002
   2.5282281000000002        2.6315789999999999E-002
   2.5348185999999999        2.6315789999999999E-002
   2.5413986999999998        2.6315789999999999E-002
   2.5479683000000000        2.6315789999999999E-002
   2.5545274000000000        2.6315789999999999E-002
   2.5610759999999999        2.6315789999999999E-002
   2.5676142000000000        2.6315789999999999E-002
   2.0400699000000002        3.0701755000000001E-002
   2.0474258000000001        3.0701755000000001E-002
   2.0547704000000002        3.0701755000000001E-002
   2.0621035999999999        3.0701755000000001E-002
   2.0694254999999999        3.0701755000000001E-002
   2.0767359999999999        3.0701755000000001E-002
   2.0840352000000002        3.0701755000000001E-002
   2.0913232000000002        3.0701755000000001E-002
   2.0985998000000001        3.0701755000000001E-002
   2.1058652000000002        3.0701755000000001E-002
   2.1131193000000001        3.0701755000000001E-002
   2.1203620999999999        3.0701755000000001E-002
   2.1275938000000001        3.0701755000000001E-002
   2.1348142000000001        3.0701755000000001E-002
   2.1420233999999998        3.0701755000000001E-002
   2.1492214000000001        3.0701755000000001E-002
   2.1564082000000000        3.0701755000000001E-002
   2.1635838000000001        3.0701755000000001E-002
   2.1707483000000001        3.0701755000000001E-002
   2.1779016000000002        3.0701755000000001E-002
   2.1850437999999999        3.0701755000000001E-002
   2.1921748999999999        3.0701755000000001E-002
   2.1992948000000001        3.0701755000000001E-002
   2.2064037000000001        3.0701755000000001E-002
   2.2135014000000002        3.0701755000000001E-002