 TITLE = "GRIDBLO_BC0004"
 VARIABLES = "X","Y"
ZONE I=   127,J=   115  ,DATAPACKING=POINT
 -0.49999993999999998        4.4642859139999999E-003
 -0.49561398000000001        4.4642859139999999E-003
 -0.49122800999999999        4.4642859139999999E-003
 -0.48684205000000003        4.4642859139999999E-003
 -0.48245609000000000        4.4642859139999999E-003
 -0.47807011999999999        4.4642859139999999E-003
 -0.47368416000000002        4.4642859139999999E-003
 -0.46929819000000000        4.4642859139999999E-003
 -0.46491222999999998        4.4642859139999999E-003
 -0.46052627000000002        4.4642859139999999E-003
 -0.45614030000000000        4.4642859139999999E-003
 -0.45175433999999998        4.4642859139999999E-003
 -0.44736838000000001        4.4642859139999999E-003
 -0.44298240999999999        4.4642859139999999E-003
 -0.43859645000000003        4.4642859139999999E-003
 -0.43421048000000001        4.4642859139999999E-003
 -0.42982451999999999        4.4642859139999999E-003
 -0.42543856000000002        4.4642859139999999E-003
 -0.42105259000000000        4.4642859139999999E-003
 -0.41666662999999998        4.4642859139999999E-003
 -0.41228067000000002        4.4642859139999999E-003
 -0.40789470000000000        4.4642859139999999E-003
 -0.40350873999999998        4.4642859139999999E-003
 -0.39912277000000002        4.4642859139999999E-003
 -0.39473680999999999        4.4642859139999999E-003
 -0.39035085000000003        4.4642859139999999E-003
 -0.38596488000000001        4.4642859139999999E-003
 -0.38157891999999999        4.4642859139999999E-003
 -0.37719296000000002        4.4642859139999999E-003
 -0.37280699000000000        4.4642859139999999E-003
 -0.36842102999999998        4.4642859139999999E-003
 -0.36403506000000002        4.4642859139999999E-003
 -0.35964910000000000        4.4642859139999999E-003
 -0.35526313999999998        4.4642859139999999E-003
 -0.35087717000000002        4.4642859139999999E-003
 -0.34649120999999999        4.4642859139999999E-003
 -0.34210525000000003        4.4642859139999999E-003
 -0.33771928000000001        4.4642859139999999E-003
 -0.33333331999999999        4.4642859139999999E-003
 -0.32894735000000003        4.4642859139999999E-003
 -0.32456139000000001        4.4642859139999999E-003
 -0.32017542999999998        4.4642859139999999E-003
 -0.31578946000000002        4.4642859139999999E-003
 -0.31140350000000000        4.4642859139999999E-003
 -0.30701753999999998        4.4642859139999999E-003
 -0.30263157000000002        4.4642859139999999E-003
 -0.29824560999999999        4.4642859139999999E-003
 -0.29385963999999998        4.4642859139999999E-003
 -0.28947368000000001        4.4642859139999999E-003
 -0.28508771999999999        4.4642859139999999E-003
 -0.28070175000000003        4.4642859139999999E-003
 -0.27631579000000001        4.4642859139999999E-003
 -0.27192982999999998        4.4642859139999999E-003
 -0.26754386000000002        4.4642859139999999E-003
 -0.26315790000000000        4.4642859139999999E-003
 -0.25877192999999998        4.4642859139999999E-003
 -0.25438597000000002        4.4642859139999999E-003
 -0.25000000999999999        4.4642859139999999E-003
 -0.24561404000000001        4.4642859139999999E-003
 -0.24122808000000001        4.4642859139999999E-003
 -0.23684211999999999        4.4642859139999999E-003
 -0.23245615000000000        4.4642859139999999E-003
 -0.22807019000000001        4.4642859139999999E-003
 -0.22368421999999999        4.4642859139999999E-003
 -0.21929825999999999        4.4642859139999999E-003
 -0.21491230000000000        4.4642859139999999E-003
 -0.21052633000000001        4.4642859139999999E-003
 -0.20614036999999999        4.4642859139999999E-003
 -0.20175441000000000        4.4642859139999999E-003
 -0.19736844000000001        4.4642859139999999E-003
 -0.19298248000000001        4.4642859139999999E-003
 -0.18859650999999999        4.4642859139999999E-003
 -0.18421055000000000        4.4642859139999999E-003
 -0.17982459000000001        4.4642859139999999E-003
 -0.17543861999999999        4.4642859139999999E-003
 -0.17105266000000000        4.4642859139999999E-003
 -0.16666670000000000        4.4642859139999999E-003
 -0.16228073000000001        4.4642859139999999E-003
 -0.15789476999999999        4.4642859139999999E-003
 -0.15350880000000000        4.4642859139999999E-003
 -0.14912284000000001        4.4642859139999999E-003
 -0.14473688000000001        4.4642859139999999E-003
 -0.14035091000000000        4.4642859139999999E-003
 -0.13596495000000000        4.4642859139999999E-003
 -0.13157899000000001        4.4642859139999999E-003
 -0.12719301999999999        4.4642859139999999E-003
 -0.12280706000000000        4.4642859139999999E-003
 -0.11842109000000001        4.4642859139999999E-003
 -0.11403513000000000        4.4642859139999999E-003
 -0.10964917000000000        4.4642859139999999E-003
 -0.10526320000000000        4.4642859139999999E-003
 -0.10087724000000001        4.4642859139999999E-003
  -9.6491275000000001E-002   4.4642859139999999E-003
  -9.2105310999999995E-002   4.4642859139999999E-003
  -8.7719348000000003E-002   4.4642859139999999E-003
  -8.3333383999999996E-002   4.4642859139999999E-003
  -7.8947420000000004E-002   4.4642859139999999E-003
  -7.4561455999999998E-002   4.4642859139999999E-003
  -7.0175493000000005E-002   4.4642859139999999E-003
  -6.5789528999999999E-002   4.4642859139999999E-003
  -6.1403565000000000E-002   4.4642859139999999E-003
  -5.7017601000000001E-002   4.4642859139999999E-003
  -5.2631638000000001E-002   4.4642859139999999E-003
  -4.8245674000000002E-002   4.4642859139999999E-003
  -4.3859710000000003E-002   4.4642859139999999E-003
  -3.9473745999999997E-002   4.4642859139999999E-003
  -3.5087781999999998E-002   4.4642859139999999E-003
  -3.0701819000000002E-002   4.4642859139999999E-003
  -2.6315854999999999E-002   4.4642859139999999E-003
  -2.1929891000000000E-002   4.4642859139999999E-003
  -1.7543927000000001E-002   4.4642859139999999E-003
  -1.3157963999999999E-002   4.4642859139999999E-003
  -8.7719999000000007E-003   4.4642859139999999E-003
  -4.3860360999999999E-003   4.4642859139999999E-003
  -7.2377000000000000E-008   4.4642859139999999E-003
   4.3858921000000002E-003   4.4642859139999999E-003
   8.7718566000000008E-003   4.4642859139999999E-003
   1.3157821000000000E-002   4.4642859139999999E-003
   1.7543785999999999E-002   4.4642859139999999E-003
   2.1929750000000001E-002   4.4642859139999999E-003
   2.6315715000000000E-002   4.4642859139999999E-003
   3.0701678999999999E-002   4.4642859139999999E-003
   3.5087644000000001E-002   4.4642859139999999E-003
   3.9473608000000000E-002   4.4642859139999999E-003
   4.3859572999999999E-002   4.4642859139999999E-003
   4.8245536999999998E-002   4.4642859139999999E-003
   5.2631501999999997E-002   4.4642859139999999E-003
 -0.49999993999999998        4.3859650000000003E-003
 -0.49561398000000001        4.3859650000000003E-003
 -0.49122800999999999        4.3859650000000003E-003
 -0.48684205000000003        4.3859650000000003E-003
 -0.48245609000000000        4.3859650000000003E-003
 -0.47807011999999999        4.3859650000000003E-003
 -0.47368416000000002        4.3859650000000003E-003
 -0.46929819000000000        4.3859650000000003E-003
 -0.46491222999999998        4.3859650000000003E-003
 -0.46052627000000002        4.3859650000000003E-003
 -0.45614030000000000        4.3859650000000003E-003
 -0.45175433999999998        4.3859650000000003E-003
 -0.44736838000000001        4.3859650000000003E-003
 -0.44298240999999999        4.3859650000000003E-003
 -0.43859645000000003        4.3859650000000003E-003
 -0.43421048000000001        4.3859650000000003E-003
 -0.42982451999999999        4.3859650000000003E-003
 -0.42543856000000002        4.3859650000000003E-003
 -0.42105259000000000        4.3859650000000003E-003
 -0.41666662999999998        4.3859650000000003E-003
 -0.41228067000000002        4.3859650000000003E-003
 -0.40789470000000000        4.3859650000000003E-003
 -0.40350873999999998        4.3859650000000003E-003
 -0.39912277000000002        4.3859650000000003E-003
 -0.39473680999999999        4.3859650000000003E-003
 -0.39035085000000003        4.3859650000000003E-003
 -0.38596488000000001        4.3859650000000003E-003
 -0.38157891999999999        4.3859650000000003E-003
 -0.37719296000000002        4.3859650000000003E-003
 -0.37280699000000000        4.3859650000000003E-003
 -0.36842102999999998        4.3859650000000003E-003
 -0.36403506000000002        4.3859650000000003E-003
 -0.35964910000000000        4.3859650000000003E-003
 -0.35526313999999998        4.3859650000000003E-003
 -0.35087717000000002        4.3859650000000003E-003
 -0.34649120999999999        4.3859650000000003E-003
 -0.34210525000000003        4.3859650000000003E-003
 -0.33771928000000001        4.3859650000000003E-003
 -0.33333331999999999        4.3859650000000003E-003
 -0.32894735000000003        4.3859650000000003E-003
 -0.32456139000000001        4.3859650000000003E-003
 -0.32017542999999998        4.3859650000000003E-003
 -0.31578946000000002        4.3859650000000003E-003
 -0.31140350000000000        4.3859650000000003E-003
 -0.30701753999999998        4.3859650000000003E-003
 -0.30263157000000002        4.3859650000000003E-003
 -0.29824560999999999        4.3859650000000003E-003
 -0.29385963999999998        4.3859650000000003E-003
 -0.28947368000000001        4.3859650000000003E-003
 -0.28508771999999999        4.3859650000000003E-003
 -0.28070175000000003        4.3859650000000003E-003
 -0.27631579000000001        4.3859650000000003E-003
 -0.27192982999999998        4.3859650000000003E-003
 -0.26754386000000002        4.3859650000000003E-003
 -0.26315790000000000        4.3859650000000003E-003
 -0.25877192999999998        4.3859650000000003E-003
 -0.25438597000000002        4.3859650000000003E-003
 -0.25000000999999999        4.3859650000000003E-003
 -0.24561404000000001        4.3859650000000003E-003
 -0.24122808000000001        4.3859650000000003E-003
 -0.23684211999999999        4.3859650000000003E-003
 -0.23245615000000000        4.3859650000000003E-003
 -0.22807019000000001        4.3859650000000003E-003
 -0.22368421999999999        4.3859650000000003E-003
 -0.21929825999999999        4.3859650000000003E-003
 -0.21491230000000000        4.3859650000000003E-003
 -0.21052633000000001        4.3859650000000003E-003
 -0.20614036999999999        4.3859650000000003E-003
 -0.20175441000000000        4.3859650000000003E-003
 -0.19736844000000001        4.3859650000000003E-003
 -0.19298248000000001        4.3859650000000003E-003
 -0.18859650999999999        4.3859650000000003E-003
 -0.18421055000000000        4.3859650000000003E-003
 -0.17982459000000001        4.3859650000000003E-003
 -0.17543861999999999        4.3859650000000003E-003
 -0.17105266000000000        4.3859650000000003E-003
 -0.16666670000000000        4.3859650000000003E-003
 -0.16228073000000001        4.3859650000000003E-003
 -0.15789476999999999        4.3859650000000003E-003
 -0.15350880000000000        4.3859650000000003E-003
 -0.14912284000000001        4.3859650000000003E-003
 -0.14473688000000001        4.3859650000000003E-003
 -0.14035091000000000        4.3859650000000003E-003
 -0.13596495000000000        4.3859650000000003E-003
 -0.13157899000000001        4.3859650000000003E-003
 -0.12719301999999999        4.3859650000000003E-003
 -0.12280706000000000        4.3859650000000003E-003
 -0.11842109000000001        4.3859650000000003E-003
 -0.11403513000000000        4.3859650000000003E-003
 -0.10964917000000000        4.3859650000000003E-003
 -0.10526320000000000        4.3859650000000003E-003
 -0.10087724000000001        4.3859650000000003E-003
  -9.6491275000000001E-002   4.3859650000000003E-003
  -9.2105310999999995E-002   4.3859650000000003E-003
  -8.7719348000000003E-002   4.3859650000000003E-003
  -8.3333383999999996E-002   4.3859650000000003E-003
  -7.8947420000000004E-002   4.3859650000000003E-003
  -7.4561455999999998E-002   4.3859650000000003E-003
  -7.0175493000000005E-002   4.3859650000000003E-003
  -6.5789528999999999E-002   4.3859650000000003E-003
  -6.1403565000000000E-002   4.3859650000000003E-003
  -5.7017601000000001E-002   4.3859650000000003E-003
  -5.2631638000000001E-002   4.3859650000000003E-003
  -4.8245674000000002E-002   4.3859650000000003E-003
  -4.3859710000000003E-002   4.3859650000000003E-003
  -3.9473745999999997E-002   4.3859650000000003E-003
  -3.5087781999999998E-002   4.3859650000000003E-003
  -3.0701819000000002E-002   4.3859650000000003E-003
  -2.6315854999999999E-002   4.3859650000000003E-003
  -2.1929891000000000E-002   4.3859650000000003E-003
  -1.7543927000000001E-002   4.3859650000000003E-003
  -1.3157963999999999E-002   4.3859650000000003E-003
  -8.7719999000000007E-003   4.3859650000000003E-003
  -4.3860360999999999E-003   4.3859650000000003E-003
  -7.2377000000000000E-008   4.3859650000000003E-003
   4.3858921000000002E-003   4.3859650000000003E-003
   8.7718566000000008E-003   4.3859650000000003E-003
   1.3157821000000000E-002   4.3859650000000003E-003
   1.7543785999999999E-002   4.3859650000000003E-003
   2.1929750000000001E-002   4.3859650000000003E-003
   2.6315715000000000E-002   4.3859650000000003E-003
   3.0701678999999999E-002   4.3859650000000003E-003
   3.5087644000000001E-002   4.3859650000000003E-003
   3.9473608000000000E-002   4.3859650000000003E-003
   4.3859572999999999E-002   4.3859650000000003E-003
   4.8245536999999998E-002   4.3859650000000003E-003
   5.2631501999999997E-002   4.3859650000000003E-003
 -0.49999993999999998        8.7719301000000003E-003
 -0.49561398000000001        8.7719301000000003E-003
 -0.49122800999999999        8.7719301000000003E-003
 -0.48684205000000003        8.7719301000000003E-003
 -0.48245609000000000        8.7719301000000003E-003
 -0.47807011999999999        8.7719301000000003E-003
 -0.47368416000000002        8.7719301000000003E-003
 -0.46929819000000000        8.7719301000000003E-003
 -0.46491222999999998        8.7719301000000003E-003
 -0.46052627000000002        8.7719301000000003E-003
 -0.45614030000000000        8.7719301000000003E-003
 -0.45175433999999998        8.7719301000000003E-003
 -0.44736838000000001        8.7719301000000003E-003
 -0.44298240999999999        8.7719301000000003E-003
 -0.43859645000000003        8.7719301000000003E-003
 -0.43421048000000001        8.7719301000000003E-003
 -0.42982451999999999        8.7719301000000003E-003
 -0.42543856000000002        8.7719301000000003E-003
 -0.42105259000000000        8.7719301000000003E-003
 -0.41666662999999998        8.7719301000000003E-003
 -0.41228067000000002        8.7719301000000003E-003
 -0.40789470000000000        8.7719301000000003E-003
 -0.40350873999999998        8.7719301000000003E-003
 -0.39912277000000002        8.7719301000000003E-003
 -0.39473680999999999        8.7719301000000003E-003
 -0.39035085000000003        8.7719301000000003E-003
 -0.38596488000000001        8.7719301000000003E-003
 -0.38157891999999999        8.7719301000000003E-003
 -0.37719296000000002        8.7719301000000003E-003
 -0.37280699000000000        8.7719301000000003E-003
 -0.36842102999999998        8.7719301000000003E-003
 -0.36403506000000002        8.7719301000000003E-003
 -0.35964910000000000        8.7719301000000003E-003
 -0.35526313999999998        8.7719301000000003E-003
 -0.35087717000000002        8.7719301000000003E-003
 -0.34649120999999999        8.7719301000000003E-003
 -0.34210525000000003        8.7719301000000003E-003
 -0.33771928000000001        8.7719301000000003E-003
 -0.33333331999999999        8.7719301000000003E-003
 -0.32894735000000003        8.7719301000000003E-003
 -0.32456139000000001        8.7719301000000003E-003
 -0.32017542999999998        8.7719301000000003E-003
 -0.31578946000000002        8.7719301000000003E-003
 -0.31140350000000000        8.7719301000000003E-003
 -0.30701753999999998        8.7719301000000003E-003
 -0.30263157000000002        8.7719301000000003E-003
 -0.29824560999999999        8.7719301000000003E-003
 -0.29385963999999998        8.7719301000000003E-003
 -0.28947368000000001        8.7719301000000003E-003
 -0.28508771999999999        8.7719301000000003E-003
 -0.28070175000000003        8.7719301000000003E-003
 -0.27631579000000001        8.7719301000000003E-003
 -0.27192982999999998        8.7719301000000003E-003
 -0.26754386000000002        8.7719301000000003E-003
 -0.26315790000000000        8.7719301000000003E-003
 -0.25877192999999998        8.7719301000000003E-003
 -0.25438597000000002        8.7719301000000003E-003
 -0.25000000999999999        8.7719301000000003E-003
 -0.24561404000000001        8.7719301000000003E-003
 -0.24122808000000001        8.7719301000000003E-003
 -0.23684211999999999        8.7719301000000003E-003
 -0.23245615000000000        8.7719301000000003E-003
 -0.22807019000000001        8.7719301000000003E-003
 -0.22368421999999999        8.7719301000000003E-003
 -0.21929825999999999        8.7719301000000003E-003
 -0.21491230000000000        8.7719301000000003E-003
 -0.21052633000000001        8.7719301000000003E-003
 -0.20614036999999999        8.7719301000000003E-003
 -0.20175441000000000        8.7719301000000003E-003
 -0.19736844000000001        8.7719301000000003E-003
 -0.19298248000000001        8.7719301000000003E-003
 -0.18859650999999999        8.7719301000000003E-003
 -0.18421055000000000        8.7719301000000003E-003
 -0.17982459000000001        8.7719301000000003E-003
 -0.17543861999999999        8.7719301000000003E-003
 -0.17105266000000000        8.7719301000000003E-003
 -0.16666670000000000        8.7719301000000003E-003
 -0.16228073000000001        8.7719301000000003E-003
 -0.15789476999999999        8.7719301000000003E-003
 -0.15350880000000000        8.7719301000000003E-003
 -0.14912284000000001        8.7719301000000003E-003
 -0.14473688000000001        8.7719301000000003E-003
 -0.14035091000000000        8.7719301000000003E-003
 -0.13596495000000000        8.7719301000000003E-003
 -0.13157899000000001        8.7719301000000003E-003
 -0.12719301999999999        8.7719301000000003E-003
 -0.12280706000000000        8.7719301000000003E-003
 -0.11842109000000001        8.7719301000000003E-003
 -0.11403513000000000        8.7719301000000003E-003
 -0.10964917000000000        8.7719301000000003E-003
 -0.10526320000000000        8.7719301000000003E-003
 -0.10087724000000001        8.7719301000000003E-003
  -9.6491275000000001E-002   8.7719301000000003E-003
  -9.2105310999999995E-002   8.7719301000000003E-003
  -8.7719348000000003E-002   8.7719301000000003E-003
  -8.3333383999999996E-002   8.7719301000000003E-003
  -7.8947420000000004E-002   8.7719301000000003E-003
  -7.4561455999999998E-002   8.7719301000000003E-003
  -7.0175493000000005E-002   8.7719301000000003E-003
  -6.5789528999999999E-002   8.7719301000000003E-003
  -6.1403565000000000E-002   8.7719301000000003E-003
  -5.7017601000000001E-002   8.7719301000000003E-003
  -5.2631638000000001E-002   8.7719301000000003E-003
  -4.8245674000000002E-002   8.7719301000000003E-003
  -4.3859710000000003E-002   8.7719301000000003E-003
  -3.9473745999999997E-002   8.7719301000000003E-003
  -3.5087781999999998E-002   8.7719301000000003E-003
  -3.0701819000000002E-002   8.7719301000000003E-003
  -2.6315854999999999E-002   8.7719301000000003E-003
  -2.1929891000000000E-002   8.7719301000000003E-003
  -1.7543927000000001E-002   8.7719301000000003E-003
  -1.3157963999999999E-002   8.7719301000000003E-003
  -8.7719999000000007E-003   8.7719301000000003E-003
  -4.3860360999999999E-003   8.7719301000000003E-003
  -7.2377000000000000E-008   8.7719301000000003E-003
   4.3858921000000002E-003   8.7719301000000003E-003
   8.7718566000000008E-003   8.7719301000000003E-003
   1.3157821000000000E-002   8.7719301000000003E-003
   1.7543785999999999E-002   8.7719301000000003E-003
   2.1929750000000001E-002   8.7719301000000003E-003
   2.6315715000000000E-002   8.7719301000000003E-003
   3.0701678999999999E-002   8.7719301000000003E-003
   3.5087644000000001E-002   8.7719301000000003E-003
   3.9473608000000000E-002   8.7719301000000003E-003
   4.3859572999999999E-002   8.7719301000000003E-003
   4.8245536999999998E-002   8.7719301000000003E-003
   5.2631501999999997E-002   8.7719301000000003E-003
 -0.49999993999999998        1.3157894999999999E-002
 -0.49561398000000001        1.3157894999999999E-002
 -0.49122800999999999        1.3157894999999999E-002
 -0.48684205000000003        1.3157894999999999E-002
 -0.48245609000000000        1.3157894999999999E-002
 -0.47807011999999999        1.3157894999999999E-002
 -0.47368416000000002        1.3157894999999999E-002
 -0.46929819000000000        1.3157894999999999E-002
 -0.46491222999999998        1.3157894999999999E-002
 -0.46052627000000002        1.3157894999999999E-002
 -0.45614030000000000        1.3157894999999999E-002
 -0.45175433999999998        1.3157894999999999E-002
 -0.44736838000000001        1.3157894999999999E-002
 -0.44298240999999999        1.3157894999999999E-002
 -0.43859645000000003        1.3157894999999999E-002
 -0.43421048000000001        1.3157894999999999E-002
 -0.42982451999999999        1.3157894999999999E-002
 -0.42543856000000002        1.3157894999999999E-002
 -0.42105259000000000        1.3157894999999999E-002
 -0.41666662999999998        1.3157894999999999E-002
 -0.41228067000000002        1.3157894999999999E-002
 -0.40789470000000000        1.3157894999999999E-002
 -0.40350873999999998        1.3157894999999999E-002
 -0.39912277000000002        1.3157894999999999E-002
 -0.39473680999999999        1.3157894999999999E-002
 -0.39035085000000003        1.3157894999999999E-002
 -0.38596488000000001        1.3157894999999999E-002
 -0.38157891999999999        1.3157894999999999E-002
 -0.37719296000000002        1.3157894999999999E-002
 -0.37280699000000000        1.3157894999999999E-002
 -0.36842102999999998        1.3157894999999999E-002
 -0.36403506000000002        1.3157894999999999E-002
 -0.35964910000000000        1.3157894999999999E-002
 -0.35526313999999998        1.3157894999999999E-002
 -0.35087717000000002        1.3157894999999999E-002
 -0.34649120999999999        1.3157894999999999E-002
 -0.34210525000000003        1.3157894999999999E-002
 -0.33771928000000001        1.3157894999999999E-002
 -0.33333331999999999        1.3157894999999999E-002
 -0.32894735000000003        1.3157894999999999E-002
 -0.32456139000000001        1.3157894999999999E-002
 -0.32017542999999998        1.3157894999999999E-002
 -0.31578946000000002        1.3157894999999999E-002
 -0.31140350000000000        1.3157894999999999E-002
 -0.30701753999999998        1.3157894999999999E-002
 -0.30263157000000002        1.3157894999999999E-002
 -0.29824560999999999        1.3157894999999999E-002
 -0.29385963999999998        1.3157894999999999E-002
 -0.28947368000000001        1.3157894999999999E-002
 -0.28508771999999999        1.3157894999999999E-002
 -0.28070175000000003        1.3157894999999999E-002
 -0.27631579000000001        1.3157894999999999E-002
 -0.27192982999999998        1.3157894999999999E-002
 -0.26754386000000002        1.3157894999999999E-002
 -0.26315790000000000        1.3157894999999999E-002
 -0.25877192999999998        1.3157894999999999E-002
 -0.25438597000000002        1.3157894999999999E-002
 -0.25000000999999999        1.3157894999999999E-002
 -0.24561404000000001        1.3157894999999999E-002
 -0.24122808000000001        1.3157894999999999E-002
 -0.23684211999999999        1.3157894999999999E-002
 -0.23245615000000000        1.3157894999999999E-002
 -0.22807019000000001        1.3157894999999999E-002
 -0.22368421999999999        1.3157894999999999E-002
 -0.21929825999999999        1.3157894999999999E-002
 -0.21491230000000000        1.3157894999999999E-002
 -0.21052633000000001        1.3157894999999999E-002
 -0.20614036999999999        1.3157894999999999E-002
 -0.20175441000000000        1.3157894999999999E-002
 -0.19736844000000001        1.3157894999999999E-002
 -0.19298248000000001        1.3157894999999999E-002
 -0.18859650999999999        1.3157894999999999E-002
 -0.18421055000000000        1.3157894999999999E-002
 -0.17982459000000001        1.3157894999999999E-002
 -0.17543861999999999        1.3157894999999999E-002
 -0.17105266000000000        1.3157894999999999E-002
 -0.16666670000000000        1.3157894999999999E-002
 -0.16228073000000001        1.3157894999999999E-002
 -0.15789476999999999        1.3157894999999999E-002
 -0.15350880000000000        1.3157894999999999E-002
 -0.14912284000000001        1.3157894999999999E-002
 -0.14473688000000001        1.3157894999999999E-002
 -0.14035091000000000        1.3157894999999999E-002
 -0.13596495000000000        1.3157894999999999E-002
 -0.13157899000000001        1.3157894999999999E-002
 -0.12719301999999999        1.3157894999999999E-002
 -0.12280706000000000        1.3157894999999999E-002
 -0.11842109000000001        1.3157894999999999E-002
 -0.11403513000000000        1.3157894999999999E-002
 -0.10964917000000000        1.3157894999999999E-002
 -0.10526320000000000        1.3157894999999999E-002
 -0.10087724000000001        1.3157894999999999E-002
  -9.6491275000000001E-002   1.3157894999999999E-002
  -9.2105310999999995E-002   1.3157894999999999E-002
  -8.7719348000000003E-002   1.3157894999999999E-002
  -8.3333383999999996E-002   1.3157894999999999E-002
  -7.8947420000000004E-002   1.3157894999999999E-002
  -7.4561455999999998E-002   1.3157894999999999E-002
  -7.0175493000000005E-002   1.3157894999999999E-002
  -6.5789528999999999E-002   1.3157894999999999E-002
  -6.1403565000000000E-002   1.3157894999999999E-002
  -5.7017601000000001E-002   1.3157894999999999E-002
  -5.2631638000000001E-002   1.3157894999999999E-002
  -4.8245674000000002E-002   1.3157894999999999E-002
  -4.3859710000000003E-002   1.3157894999999999E-002
  -3.9473745999999997E-002   1.3157894999999999E-002
  -3.5087781999999998E-002   1.3157894999999999E-002
  -3.0701819000000002E-002   1.3157894999999999E-002
  -2.6315854999999999E-002   1.3157894999999999E-002
  -2.1929891000000000E-002   1.3157894999999999E-002
  -1.7543927000000001E-002   1.3157894999999999E-002
  -1.3157963999999999E-002   1.3157894999999999E-002
  -8.7719999000000007E-003   1.3157894999999999E-002
  -4.3860360999999999E-003   1.3157894999999999E-002
  -7.2377000000000000E-008   1.3157894999999999E-002
   4.3858921000000002E-003   1.3157894999999999E-002
   8.7718566000000008E-003   1.3157894999999999E-002
   1.3157821000000000E-002   1.3157894999999999E-002
   1.7543785999999999E-002   1.3157894999999999E-002
   2.1929750000000001E-002   1.3157894999999999E-002
   2.6315715000000000E-002   1.3157894999999999E-002
   3.0701678999999999E-002   1.3157894999999999E-002
   3.5087644000000001E-002   1.3157894999999999E-002
   3.9473608000000000E-002   1.3157894999999999E-002
   4.3859572999999999E-002   1.3157894999999999E-002
   4.8245536999999998E-002   1.3157894999999999E-002
   5.2631501999999997E-002   1.3157894999999999E-002
 -0.49999993999999998        1.7543860000000001E-002
 -0.49561398000000001        1.7543860000000001E-002
 -0.49122800999999999        1.7543860000000001E-002
 -0.48684205000000003        1.7543860000000001E-002
 -0.48245609000000000        1.7543860000000001E-002
 -0.47807011999999999        1.7543860000000001E-002
 -0.47368416000000002        1.7543860000000001E-002
 -0.46929819000000000        1.7543860000000001E-002
 -0.46491222999999998        1.7543860000000001E-002
 -0.46052627000000002        1.7543860000000001E-002
 -0.45614030000000000        1.7543860000000001E-002
 -0.45175433999999998        1.7543860000000001E-002
 -0.44736838000000001        1.7543860000000001E-002
 -0.44298240999999999        1.7543860000000001E-002
 -0.43859645000000003        1.7543860000000001E-002
 -0.43421048000000001        1.7543860000000001E-002
 -0.42982451999999999        1.7543860000000001E-002
 -0.42543856000000002        1.7543860000000001E-002
 -0.42105259000000000        1.7543860000000001E-002
 -0.41666662999999998        1.7543860000000001E-002
 -0.41228067000000002        1.7543860000000001E-002
 -0.40789470000000000        1.7543860000000001E-002
 -0.40350873999999998        1.7543860000000001E-002
 -0.39912277000000002        1.7543860000000001E-002
 -0.39473680999999999        1.7543860000000001E-002
 -0.39035085000000003        1.7543860000000001E-002
 -0.38596488000000001        1.7543860000000001E-002
 -0.38157891999999999        1.7543860000000001E-002
 -0.37719296000000002        1.7543860000000001E-002
 -0.37280699000000000        1.7543860000000001E-002
 -0.36842102999999998        1.7543860000000001E-002
 -0.36403506000000002        1.7543860000000001E-002
 -0.35964910000000000        1.7543860000000001E-002
 -0.35526313999999998        1.7543860000000001E-002
 -0.35087717000000002        1.7543860000000001E-002
 -0.34649120999999999        1.7543860000000001E-002
 -0.34210525000000003        1.7543860000000001E-002
 -0.33771928000000001        1.7543860000000001E-002
 -0.33333331999999999        1.7543860000000001E-002
 -0.32894735000000003        1.7543860000000001E-002
 -0.32456139000000001        1.7543860000000001E-002
 -0.32017542999999998        1.7543860000000001E-002
 -0.31578946000000002        1.7543860000000001E-002
 -0.31140350000000000        1.7543860000000001E-002
 -0.30701753999999998        1.7543860000000001E-002
 -0.30263157000000002        1.7543860000000001E-002
 -0.29824560999999999        1.7543860000000001E-002
 -0.29385963999999998        1.7543860000000001E-002
 -0.28947368000000001        1.7543860000000001E-002
 -0.28508771999999999        1.7543860000000001E-002
 -0.28070175000000003        1.7543860000000001E-002
 -0.27631579000000001        1.7543860000000001E-002
 -0.27192982999999998        1.7543860000000001E-002
 -0.26754386000000002        1.7543860000000001E-002
 -0.26315790000000000        1.7543860000000001E-002
 -0.25877192999999998        1.7543860000000001E-002