 TITLE = "GRIDBLO_BC0008"
 VARIABLES = "X","Y"
ZONE I=   121,J=    67  ,DATAPACKING=POINT
  -1.4799998999999999       0.26315790000000000     
  -1.4755555000000000       0.26315790000000000     
  -1.4711110999999999       0.26315790000000000     
  -1.4666665999999999       0.26315790000000000     
  -1.4622222000000000       0.26315790000000000     
  -1.4577777000000001       0.26315790000000000     
  -1.4533332999999999       0.26315790000000000     
  -1.4488888000000000       0.26315790000000000     
  -1.4444444000000001       0.26315790000000000     
  -1.4399999000000001       0.26315790000000000     
  -1.4355555000000000       0.26315790000000000     
  -1.4311111000000001       0.26315790000000000     
  -1.4266665999999999       0.26315790000000000     
  -1.4222222000000000       0.26315790000000000     
  -1.4177777000000000       0.26315790000000000     
  -1.4133332999999999       0.26315790000000000     
  -1.4088887999999999       0.26315790000000000     
  -1.4044444000000000       0.26315790000000000     
  -1.3999999000000001       0.26315790000000000     
  -1.3955554999999999       0.26315790000000000     
  -1.3911110000000000       0.26315790000000000     
  -1.3866666000000001       0.26315790000000000     
  -1.3822222000000000       0.26315790000000000     
  -1.3777777000000000       0.26315790000000000     
  -1.3733333000000001       0.26315790000000000     
  -1.3688887999999999       0.26315790000000000     
  -1.3644444000000000       0.26315790000000000     
  -1.3599999000000000       0.26315790000000000     
  -1.3555554999999999       0.26315790000000000     
  -1.3511110000000000       0.26315790000000000     
  -1.3466666000000000       0.26315790000000000     
  -1.3422221999999999       0.26315790000000000     
  -1.3377777000000000       0.26315790000000000     
  -1.3333333000000001       0.26315790000000000     
  -1.3288888000000001       0.26315790000000000     
  -1.3244444000000000       0.26315790000000000     
  -1.3199999000000000       0.26315790000000000     
  -1.3155555000000001       0.26315790000000000     
  -1.3111109999999999       0.26315790000000000     
  -1.3066666000000000       0.26315790000000000     
  -1.3022222000000001       0.26315790000000000     
  -1.2977776999999999       0.26315790000000000     
  -1.2933333000000000       0.26315790000000000     
  -1.2888888000000001       0.26315790000000000     
  -1.2844443999999999       0.26315790000000000     
  -1.2799999000000000       0.26315790000000000     
  -1.2755555000000001       0.26315790000000000     
  -1.2711110000000001       0.26315790000000000     
  -1.2666666000000000       0.26315790000000000     
  -1.2622222000000001       0.26315790000000000     
  -1.2577777000000001       0.26315790000000000     
  -1.2533333000000000       0.26315790000000000     
  -1.2488888000000000       0.26315790000000000     
  -1.2444443999999999       0.26315790000000000     
  -1.2399998999999999       0.26315790000000000     
  -1.2355555000000000       0.26315790000000000     
  -1.2311110000000001       0.26315790000000000     
  -1.2266665999999999       0.26315790000000000     
  -1.2222222000000000       0.26315790000000000     
  -1.2177777000000001       0.26315790000000000     
  -1.2133332999999999       0.26315790000000000     
  -1.2088888000000000       0.26315790000000000     
  -1.2044444000000001       0.26315790000000000     
  -1.1999998999999999       0.26315790000000000     
  -1.1955555000000000       0.26315790000000000     
  -1.1911110000000000       0.26315790000000000     
  -1.1866665999999999       0.26315790000000000     
  -1.1822222000000000       0.26315790000000000     
  -1.1777777000000000       0.26315790000000000     
  -1.1733332999999999       0.26315790000000000     
  -1.1688888000000000       0.26315790000000000     
  -1.1644444000000000       0.26315790000000000     
  -1.1599999000000001       0.26315790000000000     
  -1.1555555000000000       0.26315790000000000     
  -1.1511110000000000       0.26315790000000000     
  -1.1466666000000001       0.26315790000000000     
  -1.1422222000000000       0.26315790000000000     
  -1.1377777000000000       0.26315790000000000     
  -1.1333333000000001       0.26315790000000000     
  -1.1288887999999999       0.26315790000000000     
  -1.1244444000000000       0.26315790000000000     
  -1.1199999000000000       0.26315790000000000     
  -1.1155554999999999       0.26315790000000000     
  -1.1111110000000000       0.26315790000000000     
  -1.1066666000000001       0.26315790000000000     
  -1.1022221000000001       0.26315790000000000     
  -1.0977777000000000       0.26315790000000000     
  -1.0933333000000001       0.26315790000000000     
  -1.0888888000000001       0.26315790000000000     
  -1.0844444000000000       0.26315790000000000     
  -1.0799999000000000       0.26315790000000000     
  -1.0755555000000001       0.26315790000000000     
  -1.0711109999999999       0.26315790000000000     
  -1.0666666000000000       0.26315790000000000     
  -1.0622221000000001       0.26315790000000000     
  -1.0577776999999999       0.26315790000000000     
  -1.0533333000000000       0.26315790000000000     
  -1.0488888000000001       0.26315790000000000     
  -1.0444443999999999       0.26315790000000000     
  -1.0399999000000000       0.26315790000000000     
  -1.0355555000000001       0.26315790000000000     
  -1.0311110000000001       0.26315790000000000     
  -1.0266666000000000       0.26315790000000000     
  -1.0222221000000000       0.26315790000000000     
  -1.0177776999999999       0.26315790000000000     
  -1.0133333000000000       0.26315790000000000     
  -1.0088888000000000       0.26315790000000000     
  -1.0044443999999999       0.26315790000000000     
 -0.99999992000000004       0.26315790000000000     
 -0.99561396000000002       0.26315790000000000     
 -0.99122798999999995       0.26315790000000000     
 -0.98684203000000004       0.26315790000000000     
 -0.98245605999999996       0.26315790000000000     
 -0.97807010000000005       0.26315790000000000     
 -0.97368412999999998       0.26315790000000000     
 -0.96929816999999996       0.26315790000000000     
 -0.96491221000000005       0.26315790000000000     
 -0.96052623999999998       0.26315790000000000     
 -0.95614027999999995       0.26315790000000000     
 -0.95175430999999999       0.26315790000000000     
 -0.94736834999999997       0.26315790000000000     
  -1.4799998999999999       0.26754387000000002     
  -1.4755555000000000       0.26754387000000002     
  -1.4711110999999999       0.26754387000000002     
  -1.4666665999999999       0.26754387000000002     
  -1.4622222000000000       0.26754387000000002     
  -1.4577777000000001       0.26754387000000002     
  -1.4533332999999999       0.26754387000000002     
  -1.4488888000000000       0.26754387000000002     
  -1.4444444000000001       0.26754387000000002     
  -1.4399999000000001       0.26754387000000002     
  -1.4355555000000000       0.26754387000000002     
  -1.4311111000000001       0.26754387000000002     
  -1.4266665999999999       0.26754387000000002     
  -1.4222222000000000       0.26754387000000002     
  -1.4177777000000000       0.26754387000000002     
  -1.4133332999999999       0.26754387000000002     
  -1.4088887999999999       0.26754387000000002     
  -1.4044444000000000       0.26754387000000002     
  -1.3999999000000001       0.26754387000000002     
  -1.3955554999999999       0.26754387000000002     
  -1.3911110000000000       0.26754387000000002     
  -1.3866666000000001       0.26754387000000002     
  -1.3822222000000000       0.26754387000000002     
  -1.3777777000000000       0.26754387000000002     
  -1.3733333000000001       0.26754387000000002     
  -1.3688887999999999       0.26754387000000002     
  -1.3644444000000000       0.26754387000000002     
  -1.3599999000000000       0.26754387000000002     
  -1.3555554999999999       0.26754387000000002     
  -1.3511110000000000       0.26754387000000002     
  -1.3466666000000000       0.26754387000000002     
  -1.3422221999999999       0.26754387000000002     
  -1.3377777000000000       0.26754387000000002     
  -1.3333333000000001       0.26754387000000002     
  -1.3288888000000001       0.26754387000000002     
  -1.3244444000000000       0.26754387000000002     
  -1.3199999000000000       0.26754387000000002     
  -1.3155555000000001       0.26754387000000002     
  -1.3111109999999999       0.26754387000000002     
  -1.3066666000000000       0.26754387000000002     
  -1.3022222000000001       0.26754387000000002     
  -1.2977776999999999       0.26754387000000002     
  -1.2933333000000000       0.26754387000000002     
  -1.2888888000000001       0.26754387000000002     
  -1.2844443999999999       0.26754387000000002     
  -1.2799999000000000       0.26754387000000002     
  -1.2755555000000001       0.26754387000000002     
  -1.2711110000000001       0.26754387000000002     
  -1.2666666000000000       0.26754387000000002     
  -1.2622222000000001       0.26754387000000002     
  -1.2577777000000001       0.26754387000000002     
  -1.2533333000000000       0.26754387000000002     
  -1.2488888000000000       0.26754387000000002     
  -1.2444443999999999       0.26754387000000002     
  -1.2399998999999999       0.26754387000000002     
  -1.2355555000000000       0.26754387000000002     
  -1.2311110000000001       0.26754387000000002     
  -1.2266665999999999       0.26754387000000002     
  -1.2222222000000000       0.26754387000000002     
  -1.2177777000000001       0.26754387000000002     
  -1.2133332999999999       0.26754387000000002     
  -1.2088888000000000       0.26754387000000002     
  -1.2044444000000001       0.26754387000000002     
  -1.1999998999999999       0.26754387000000002     
  -1.1955555000000000       0.26754387000000002     
  -1.1911110000000000       0.26754387000000002     
  -1.1866665999999999       0.26754387000000002     
  -1.1822222000000000       0.26754387000000002     
  -1.1777777000000000       0.26754387000000002     
  -1.1733332999999999       0.26754387000000002     
  -1.1688888000000000       0.26754387000000002     
  -1.1644444000000000       0.26754387000000002     
  -1.1599999000000001       0.26754387000000002     
  -1.1555555000000000       0.26754387000000002     
  -1.1511110000000000       0.26754387000000002     
  -1.1466666000000001       0.26754387000000002     
  -1.1422222000000000       0.26754387000000002     
  -1.1377777000000000       0.26754387000000002     
  -1.1333333000000001       0.26754387000000002     
  -1.1288887999999999       0.26754387000000002     
  -1.1244444000000000       0.26754387000000002     
  -1.1199999000000000       0.26754387000000002     
  -1.1155554999999999       0.26754387000000002     
  -1.1111110000000000       0.26754387000000002     
  -1.1066666000000001       0.26754387000000002     
  -1.1022221000000001       0.26754387000000002     
  -1.0977777000000000       0.26754387000000002     
  -1.0933333000000001       0.26754387000000002     
  -1.0888888000000001       0.26754387000000002     
  -1.0844444000000000       0.26754387000000002     
  -1.0799999000000000       0.26754387000000002     
  -1.0755555000000001       0.26754387000000002     
  -1.0711109999999999       0.26754387000000002     
  -1.0666666000000000       0.26754387000000002     
  -1.0622221000000001       0.26754387000000002     
  -1.0577776999999999       0.26754387000000002     
  -1.0533333000000000       0.26754387000000002     
  -1.0488888000000001       0.26754387000000002     
  -1.0444443999999999       0.26754387000000002     
  -1.0399999000000000       0.26754387000000002     
  -1.0355555000000001       0.26754387000000002     
  -1.0311110000000001       0.26754387000000002     
  -1.0266666000000000       0.26754387000000002     
  -1.0222221000000000       0.26754387000000002     
  -1.0177776999999999       0.26754387000000002     
  -1.0133333000000000       0.26754387000000002     
  -1.0088888000000000       0.26754387000000002     
  -1.0044443999999999       0.26754387000000002     
 -0.99999992000000004       0.26754387000000002     
 -0.99561396000000002       0.26754387000000002     
 -0.99122798999999995       0.26754387000000002     
 -0.98684203000000004       0.26754387000000002     
 -0.98245605999999996       0.26754387000000002     
 -0.97807010000000005       0.26754387000000002     
 -0.97368412999999998       0.26754387000000002     
 -0.96929816999999996       0.26754387000000002     
 -0.96491221000000005       0.26754387000000002     
 -0.96052623999999998       0.26754387000000002     
 -0.95614027999999995       0.26754387000000002     
 -0.95175430999999999       0.26754387000000002     
 -0.94736834999999997       0.26754387000000002     
  -1.4799998999999999       0.27192982999999998     
  -1.4755555000000000       0.27192982999999998     
  -1.4711110999999999       0.27192982999999998     
  -1.4666665999999999       0.27192982999999998     
  -1.4622222000000000       0.27192982999999998     
  -1.4577777000000001       0.27192982999999998     
  -1.4533332999999999       0.27192982999999998     
  -1.4488888000000000       0.27192982999999998     
  -1.4444444000000001       0.27192982999999998     
  -1.4399999000000001       0.27192982999999998     
  -1.4355555000000000       0.27192982999999998     
  -1.4311111000000001       0.27192982999999998     
  -1.4266665999999999       0.27192982999999998     
  -1.4222222000000000       0.27192982999999998     
  -1.4177777000000000       0.27192982999999998     
  -1.4133332999999999       0.27192982999999998     
  -1.4088887999999999       0.27192982999999998     
  -1.4044444000000000       0.27192982999999998     
  -1.3999999000000001       0.27192982999999998     
  -1.3955554999999999       0.27192982999999998     
  -1.3911110000000000       0.27192982999999998     
  -1.3866666000000001       0.27192982999999998     
  -1.3822222000000000       0.27192982999999998     
  -1.3777777000000000       0.27192982999999998     
  -1.3733333000000001       0.27192982999999998     
  -1.3688887999999999       0.27192982999999998     
  -1.3644444000000000       0.27192982999999998     
  -1.3599999000000000       0.27192982999999998     
  -1.3555554999999999       0.27192982999999998     
  -1.3511110000000000       0.27192982999999998     
  -1.3466666000000000       0.27192982999999998     
  -1.3422221999999999       0.27192982999999998     
  -1.3377777000000000       0.27192982999999998     
  -1.3333333000000001       0.27192982999999998     
  -1.3288888000000001       0.27192982999999998     
  -1.3244444000000000       0.27192982999999998     
  -1.3199999000000000       0.27192982999999998     
  -1.3155555000000001       0.27192982999999998     
  -1.3111109999999999       0.27192982999999998     
  -1.3066666000000000       0.27192982999999998     
  -1.3022222000000001       0.27192982999999998     
  -1.2977776999999999       0.27192982999999998     
  -1.2933333000000000       0.27192982999999998     
  -1.2888888000000001       0.27192982999999998     
  -1.2844443999999999       0.27192982999999998     
  -1.2799999000000000       0.27192982999999998     
  -1.2755555000000001       0.27192982999999998     
  -1.2711110000000001       0.27192982999999998     
  -1.2666666000000000       0.27192982999999998     
  -1.2622222000000001       0.27192982999999998     
  -1.2577777000000001       0.27192982999999998     
  -1.2533333000000000       0.27192982999999998     
  -1.2488888000000000       0.27192982999999998     
  -1.2444443999999999       0.27192982999999998     
  -1.2399998999999999       0.27192982999999998     
  -1.2355555000000000       0.27192982999999998     
  -1.2311110000000001       0.27192982999999998     
  -1.2266665999999999       0.27192982999999998     
  -1.2222222000000000       0.27192982999999998     
  -1.2177777000000001       0.27192982999999998     
  -1.2133332999999999       0.27192982999999998     
  -1.2088888000000000       0.27192982999999998     
  -1.2044444000000001       0.27192982999999998     
  -1.1999998999999999       0.27192982999999998     
  -1.1955555000000000       0.27192982999999998     
  -1.1911110000000000       0.27192982999999998     
  -1.1866665999999999       0.27192982999999998     
  -1.1822222000000000       0.27192982999999998     
  -1.1777777000000000       0.27192982999999998     
  -1.1733332999999999       0.27192982999999998     
  -1.1688888000000000       0.27192982999999998     
  -1.1644444000000000       0.27192982999999998     
  -1.1599999000000001       0.27192982999999998     
  -1.1555555000000000       0.27192982999999998     
  -1.1511110000000000       0.27192982999999998     
  -1.1466666000000001       0.27192982999999998     
  -1.1422222000000000       0.27192982999999998     
  -1.1377777000000000       0.27192982999999998     
  -1.1333333000000001       0.27192982999999998     
  -1.1288887999999999       0.27192982999999998     
  -1.1244444000000000       0.27192982999999998     
  -1.1199999000000000       0.27192982999999998     
  -1.1155554999999999       0.27192982999999998     
  -1.1111110000000000       0.27192982999999998     
  -1.1066666000000001       0.27192982999999998     
  -1.1022221000000001       0.27192982999999998     
  -1.0977777000000000       0.27192982999999998     
  -1.0933333000000001       0.27192982999999998     
  -1.0888888000000001       0.27192982999999998     
  -1.0844444000000000       0.27192982999999998     
  -1.0799999000000000       0.27192982999999998     
  -1.0755555000000001       0.27192982999999998     
  -1.0711109999999999       0.27192982999999998     
  -1.0666666000000000       0.27192982999999998     
  -1.0622221000000001       0.27192982999999998     
  -1.0577776999999999       0.27192982999999998     
  -1.0533333000000000       0.27192982999999998     
  -1.0488888000000001       0.27192982999999998     
  -1.0444443999999999       0.27192982999999998     
  -1.0399999000000000       0.27192982999999998     
  -1.0355555000000001       0.27192982999999998     
  -1.0311110000000001       0.27192982999999998     
  -1.0266666000000000       0.27192982999999998     
  -1.0222221000000000       0.27192982999999998     
  -1.0177776999999999       0.27192982999999998     
  -1.0133333000000000       0.27192982999999998     
  -1.0088888000000000       0.27192982999999998     
  -1.0044443999999999       0.27192982999999998     
 -0.99999992000000004       0.27192982999999998     
 -0.99561396000000002       0.27192982999999998     
 -0.99122798999999995       0.27192982999999998     
 -0.98684203000000004       0.27192982999999998     
 -0.98245605999999996       0.27192982999999998     
 -0.97807010000000005       0.27192982999999998     
 -0.97368412999999998       0.27192982999999998     
 -0.96929816999999996       0.27192982999999998     
 -0.96491221000000005       0.27192982999999998     
 -0.96052623999999998       0.27192982999999998     
 -0.95614027999999995       0.27192982999999998     
 -0.95175430999999999       0.27192982999999998     
 -0.94736834999999997       0.27192982999999998     
  -1.4799998999999999       0.27631580000000000     
  -1.4755555000000000       0.27631580000000000     
  -1.4711110999999999       0.27631580000000000     
  -1.4666665999999999       0.27631580000000000     
  -1.4622222000000000       0.27631580000000000     
  -1.4577777000000001       0.27631580000000000     
  -1.4533332999999999       0.27631580000000000     
  -1.4488888000000000       0.27631580000000000     
  -1.4444444000000001       0.27631580000000000     
  -1.4399999000000001       0.27631580000000000     
  -1.4355555000000000       0.27631580000000000     
  -1.4311111000000001       0.27631580000000000     
  -1.4266665999999999       0.27631580000000000     
  -1.4222222000000000       0.27631580000000000     
  -1.4177777000000000       0.27631580000000000     
  -1.4133332999999999       0.27631580000000000     
  -1.4088887999999999       0.27631580000000000     
  -1.4044444000000000       0.27631580000000000     
  -1.3999999000000001       0.27631580000000000     
  -1.3955554999999999       0.27631580000000000     
  -1.3911110000000000       0.27631580000000000     
  -1.3866666000000001       0.27631580000000000     
  -1.3822222000000000       0.27631580000000000     
  -1.3777777000000000       0.27631580000000000     
  -1.3733333000000001       0.27631580000000000     
  -1.3688887999999999       0.27631580000000000     
  -1.3644444000000000       0.27631580000000000     
  -1.3599999000000000       0.27631580000000000     
  -1.3555554999999999       0.27631580000000000     
  -1.3511110000000000       0.27631580000000000     
  -1.3466666000000000       0.27631580000000000     
  -1.3422221999999999       0.27631580000000000     
  -1.3377777000000000       0.27631580000000000     
  -1.3333333000000001       0.27631580000000000     
  -1.3288888000000001       0.27631580000000000     
  -1.3244444000000000       0.27631580000000000     
  -1.3199999000000000       0.27631580000000000     
  -1.3155555000000001       0.27631580000000000     
  -1.3111109999999999       0.27631580000000000     
  -1.3066666000000000       0.27631580000000000     
  -1.3022222000000001       0.27631580000000000     
  -1.2977776999999999       0.27631580000000000     
  -1.2933333000000000       0.27631580000000000     
  -1.2888888000000001       0.27631580000000000     
  -1.2844443999999999       0.27631580000000000     
  -1.2799999000000000       0.27631580000000000     
  -1.2755555000000001       0.27631580000000000     
  -1.2711110000000001       0.27631580000000000     
  -1.2666666000000000       0.27631580000000000     
  -1.2622222000000001       0.27631580000000000     
  -1.2577777000000001       0.27631580000000000     
  -1.2533333000000000       0.27631580000000000     
  -1.2488888000000000       0.27631580000000000     
  -1.2444443999999999       0.27631580000000000     
  -1.2399998999999999       0.27631580000000000     
  -1.2355555000000000       0.27631580000000000     
  -1.2311110000000001       0.27631580000000000     
  -1.2266665999999999       0.27631580000000000     
  -1.2222222000000000       0.27631580000000000     
  -1.2177777000000001       0.27631580000000000     
  -1.2133332999999999       0.27631580000000000     
  -1.2088888000000000       0.27631580000000000     
  -1.2044444000000001       0.27631580000000000     
  -1.1999998999999999       0.27631580000000000     
  -1.1955555000000000       0.27631580000000000     
  -1.1911110000000000       0.27631580000000000     
  -1.1866665999999999       0.27631580000000000     
  -1.1822222000000000       0.27631580000000000     
  -1.1777777000000000       0.27631580000000000     
  -1.1733332999999999       0.27631580000000000     
  -1.1688888000000000       0.27631580000000000     
  -1.1644444000000000       0.27631580000000000     
  -1.1599999000000001       0.27631580000000000     
  -1.1555555000000000       0.27631580000000000     
  -1.1511110000000000       0.27631580000000000     
  -1.1466666000000001       0.27631580000000000     
  -1.1422222000000000       0.27631580000000000     
  -1.1377777000000000       0.27631580000000000     
  -1.1333333000000001       0.27631580000000000     
  -1.1288887999999999       0.27631580000000000     
  -1.1244444000000000       0.27631580000000000     
  -1.1199999000000000       0.27631580000000000     
  -1.1155554999999999       0.27631580000000000     
  -1.1111110000000000       0.27631580000000000     
  -1.1066666000000001       0.27631580000000000     
  -1.1022221000000001       0.27631580000000000     
  -1.0977777000000000       0.27631580000000000     
  -1.0933333000000001       0.27631580000000000     
  -1.0888888000000001       0.27631580000000000     
  -1.0844444000000000       0.27631580000000000     
  -1.0799999000000000       0.27631580000000000     
  -1.0755555000000001       0.27631580000000000     
  -1.0711109999999999       0.27631580000000000     
  -1.0666666000000000       0.27631580000000000     
  -1.0622221000000001       0.27631580000000000     
  -1.0577776999999999       0.27631580000000000     
  -1.0533333000000000       0.27631580000000000     
  -1.0488888000000001       0.27631580000000000     
  -1.0444443999999999       0.27631580000000000     
  -1.0399999000000000       0.27631580000000000     
  -1.0355555000000001       0.27631580000000000     
  -1.0311110000000001       0.27631580000000000     
  -1.0266666000000000       0.27631580000000000     
  -1.0222221000000000       0.27631580000000000     
  -1.0177776999999999       0.27631580000000000     
  -1.0133333000000000       0.27631580000000000     
  -1.0088888000000000       0.27631580000000000     
  -1.0044443999999999       0.27631580000000000     
 -0.99999992000000004       0.27631580000000000     
 -0.99561396000000002       0.27631580000000000     
 -0.99122798999999995       0.27631580000000000     
 -0.98684203000000004       0.27631580000000000     
 -0.98245605999999996       0.27631580000000000     
 -0.97807010000000005       0.27631580000000000     
 -0.97368412999999998       0.27631580000000000     
 -0.96929816999999996       0.27631580000000000     
 -0.96491221000000005       0.27631580000000000     
 -0.96052623999999998       0.27631580000000000     
 -0.95614027999999995       0.27631580000000000     
 -0.95175430999999999       0.27631580000000000     
 -0.94736834999999997       0.27631580000000000     
  -1.4799998999999999       0.28070176000000002     
  -1.4755555000000000       0.28070176000000002     
  -1.4711110999999999       0.28070176000000002     
  -1.4666665999999999       0.28070176000000002     
  -1.4622222000000000       0.28070176000000002     
  -1.4577777000000001       0.28070176000000002     
  -1.4533332999999999       0.28070176000000002     
  -1.4488888000000000       0.28070176000000002     
  -1.4444444000000001       0.28070176000000002     
  -1.4399999000000001       0.28070176000000002     
  -1.4355555000000000       0.28070176000000002     
  -1.4311111000000001       0.28070176000000002     
  -1.4266665999999999       0.28070176000000002     
  -1.4222222000000000       0.28070176000000002     
  -1.4177777000000000       0.28070176000000002     
  -1.4133332999999999       0.28070176000000002     
  -1.4088887999999999       0.28070176000000002     
  -1.4044444000000000       0.28070176000000002     
  -1.3999999000000001       0.28070176000000002     
  -1.3955554999999999       0.28070176000000002     
  -1.3911110000000000       0.28070176000000002     
  -1.3866666000000001       0.28070176000000002     
  -1.3822222000000000       0.28070176000000002     
  -1.3777777000000000       0.28070176000000002     
  -1.3733333000000001       0.28070176000000002     
  -1.3688887999999999       0.28070176000000002     
  -1.3644444000000000       0.28070176000000002     
  -1.3599999000000000       0.28070176000000002     
  -1.3555554999999999       0.28070176000000002     
  -1.3511110000000000       0.28070176000000002     
  -1.3466666000000000       0.28070176000000002     
  -1.3422221999999999       0.28070176000000002     
  -1.3377777000000000       0.28070176000000002     
  -1.3333333000000001       0.28070176000000002     
  -1.3288888000000001       0.28070176000000002     
  -1.3244444000000000       0.28070176000000002     
  -1.3199999000000000       0.28070176000000002     
  -1.3155555000000001       0.28070176000000002     
  -1.3111109999999999       0.28070176000000002     
  -1.3066666000000000       0.28070176000000002     
  -1.3022222000000001       0.28070176000000002     
  -1.2977776999999999       0.28070176000000002     
  -1.2933333000000000       0.28070176000000002     
  -1.2888888000000001       0.28070176000000002     
  -1.2844443999999999       0.28070176000000002     
  -1.2799999000000000       0.28070176000000002     
  -1.2755555000000001       0.28070176000000002     
  -1.2711110000000001       0.28070176000000002     
  -1.2666666000000000       0.28070176000000002     
  -1.2622222000000001       0.28070176000000002     
  -1.2577777000000001       0.28070176000000002     
  -1.2533333000000000       0.28070176000000002     
  -1.2488888000000000       0.28070176000000002     
  -1.2444443999999999       0.28070176000000002     
  -1.2399998999999999       0.28070176000000002     
  -1.2355555000000000       0.28070176000000002     
  -1.2311110000000001       0.28070176000000002     
  -1.2266665999999999       0.28070176000000002     
  -1.2222222000000000       0.28070176000000002     
  -1.2177777000000001       0.28070176000000002     
  -1.2133332999999999       0.28070176000000002     
  -1.2088888000000000       0.28070176000000002     
  -1.2044444000000001       0.28070176000000002     
  -1.1999998999999999       0.28070176000000002     
  -1.1955555000000000       0.28070176000000002     
  -1.1911110000000000       0.28070176000000002     
  -1.1866665999999999       0.28070176000000002     
  -1.1822222000000000       0.28070176000000002     
  -1.1777777000000000       0.28070176000000002     
  -1.1733332999999999       0.28070176000000002     
  -1.1688888000000000       0.28070176000000002     
  -1.1644444000000000       0.28070176000000002     
  -1.1599999000000001       0.28070176000000002     
  -1.1555555000000000       0.28070176000000002     
  -1.1511110000000000       0.28070176000000002     
  -1.1466666000000001       0.28070176000000002     
  -1.1422222000000000       0.28070176000000002     
  -1.1377777000000000       0.28070176000000002     
  -1.1333333000000001       0.28070176000000002     
  -1.1288887999999999       0.28070176000000002     