 TITLE = "GRIDBLO_BC0017"
 VARIABLES = "X","Y"
ZONE I=   235,J=   141  ,DATAPACKING=POINT
  -1.9866665999999999        1.0000000000000000     
  -1.9822222000000000        1.0000000000000000     
  -1.9777777000000001        1.0000000000000000     
  -1.9733333000000000        1.0000000000000000     
  -1.9688888000000000        1.0000000000000000     
  -1.9644444000000001        1.0000000000000000     
  -1.9600000000000000        1.0000000000000000     
  -1.9555555000000000        1.0000000000000000     
  -1.9511111000000001        1.0000000000000000     
  -1.9466665999999999        1.0000000000000000     
  -1.9422222000000000        1.0000000000000000     
  -1.9377777000000000        1.0000000000000000     
  -1.9333332999999999        1.0000000000000000     
  -1.9288888000000000        1.0000000000000000     
  -1.9244444000000001        1.0000000000000000     
  -1.9199999999999999        1.0000000000000000     
  -1.9155555000000000        1.0000000000000000     
  -1.9111111000000001        1.0000000000000000     
  -1.9066666000000001        1.0000000000000000     
  -1.9022222000000000        1.0000000000000000     
  -1.8977777000000000        1.0000000000000000     
  -1.8933333000000001        1.0000000000000000     
  -1.8888887999999999        1.0000000000000000     
  -1.8844444000000000        1.0000000000000000     
  -1.8799999999999999        1.0000000000000000     
  -1.8755554999999999        1.0000000000000000     
  -1.8711111000000000        1.0000000000000000     
  -1.8666666000000001        1.0000000000000000     
  -1.8622221999999999        1.0000000000000000     
  -1.8577777000000000        1.0000000000000000     
  -1.8533333000000001        1.0000000000000000     
  -1.8488888000000001        1.0000000000000000     
  -1.8444444000000000        1.0000000000000000     
  -1.8400000000000001        1.0000000000000000     
  -1.8355554999999999        1.0000000000000000     
  -1.8311111000000000        1.0000000000000000     
  -1.8266666000000000        1.0000000000000000     
  -1.8222221999999999        1.0000000000000000     
  -1.8177776999999999        1.0000000000000000     
  -1.8133333000000000        1.0000000000000000     
  -1.8088888000000001        1.0000000000000000     
  -1.8044443999999999        1.0000000000000000     
  -1.8000000000000000        1.0000000000000000     
  -1.7955555000000001        1.0000000000000000     
  -1.7911111000000000        1.0000000000000000     
  -1.7866666000000000        1.0000000000000000     
  -1.7822222000000001        1.0000000000000000     
  -1.7777776999999999        1.0000000000000000     
  -1.7733333000000000        1.0000000000000000     
  -1.7688888000000000        1.0000000000000000     
  -1.7644443999999999        1.0000000000000000     
  -1.7600000000000000        1.0000000000000000     
  -1.7555555000000000        1.0000000000000000     
  -1.7511110999999999        1.0000000000000000     
  -1.7466666000000000        1.0000000000000000     
  -1.7422222000000001        1.0000000000000000     
  -1.7377777000000001        1.0000000000000000     
  -1.7333333000000000        1.0000000000000000     
  -1.7288888000000000        1.0000000000000000     
  -1.7244444000000001        1.0000000000000000     
  -1.7200000000000000        1.0000000000000000     
  -1.7155555000000000        1.0000000000000000     
  -1.7111111000000001        1.0000000000000000     
  -1.7066665999999999        1.0000000000000000     
  -1.7022222000000000        1.0000000000000000     
  -1.6977777000000001        1.0000000000000000     
  -1.6933332999999999        1.0000000000000000     
  -1.6888888000000000        1.0000000000000000     
  -1.6844444000000001        1.0000000000000000     
  -1.6799999000000001        1.0000000000000000     
  -1.6755555000000000        1.0000000000000000     
  -1.6711111000000001        1.0000000000000000     
  -1.6666666000000001        1.0000000000000000     
  -1.6622222000000000        1.0000000000000000     
  -1.6577777000000000        1.0000000000000000     
  -1.6533332999999999        1.0000000000000000     
  -1.6488887999999999        1.0000000000000000     
  -1.6444444000000000        1.0000000000000000     
  -1.6399999000000001        1.0000000000000000     
  -1.6355554999999999        1.0000000000000000     
  -1.6311111000000000        1.0000000000000000     
  -1.6266666000000001        1.0000000000000000     
  -1.6222221999999999        1.0000000000000000     
  -1.6177777000000000        1.0000000000000000     
  -1.6133333000000001        1.0000000000000000     
  -1.6088887999999999        1.0000000000000000     
  -1.6044444000000000        1.0000000000000000     
  -1.5999999000000000        1.0000000000000000     
  -1.5955554999999999        1.0000000000000000     
  -1.5911111000000000        1.0000000000000000     
  -1.5866666000000000        1.0000000000000000     
  -1.5822221999999999        1.0000000000000000     
  -1.5777776999999999        1.0000000000000000     
  -1.5733333000000000        1.0000000000000000     
  -1.5688888000000001        1.0000000000000000     
  -1.5644444000000000        1.0000000000000000     
  -1.5599999000000000        1.0000000000000000     
  -1.5555555000000001        1.0000000000000000     
  -1.5511111000000000        1.0000000000000000     
  -1.5466666000000000        1.0000000000000000     
  -1.5422222000000001        1.0000000000000000     
  -1.5377776999999999        1.0000000000000000     
  -1.5333333000000000        1.0000000000000000     
  -1.5288888000000000        1.0000000000000000     
  -1.5244443999999999        1.0000000000000000     
  -1.5199999000000000        1.0000000000000000     
  -1.5155555000000001        1.0000000000000000     
  -1.5111110999999999        1.0000000000000000     
  -1.5066666000000000        1.0000000000000000     
  -1.5022222000000001        1.0000000000000000     
  -1.4977777000000001        1.0000000000000000     
  -1.4933333000000000        1.0000000000000000     
  -1.4888888000000000        1.0000000000000000     
  -1.4844444000000001        1.0000000000000000     
  -1.4799998999999999        1.0000000000000000     
  -1.4755555000000000        1.0000000000000000     
  -1.4711110999999999        1.0000000000000000     
  -1.4666665999999999        1.0000000000000000     
  -1.4622222000000000        1.0000000000000000     
  -1.4577777000000001        1.0000000000000000     
  -1.4533332999999999        1.0000000000000000     
  -1.4488888000000000        1.0000000000000000     
  -1.4444444000000001        1.0000000000000000     
  -1.4399999000000001        1.0000000000000000     
  -1.4355555000000000        1.0000000000000000     
  -1.4311111000000001        1.0000000000000000     
  -1.4266665999999999        1.0000000000000000     
  -1.4222222000000000        1.0000000000000000     
  -1.4177777000000000        1.0000000000000000     
  -1.4133332999999999        1.0000000000000000     
  -1.4088887999999999        1.0000000000000000     
  -1.4044444000000000        1.0000000000000000     
  -1.3999999000000001        1.0000000000000000     
  -1.3955554999999999        1.0000000000000000     
  -1.3911110000000000        1.0000000000000000     
  -1.3866666000000001        1.0000000000000000     
  -1.3822222000000000        1.0000000000000000     
  -1.3777777000000000        1.0000000000000000     
  -1.3733333000000001        1.0000000000000000     
  -1.3688887999999999        1.0000000000000000     
  -1.3644444000000000        1.0000000000000000     
  -1.3599999000000000        1.0000000000000000     
  -1.3555554999999999        1.0000000000000000     
  -1.3511110000000000        1.0000000000000000     
  -1.3466666000000000        1.0000000000000000     
  -1.3422221999999999        1.0000000000000000     
  -1.3377777000000000        1.0000000000000000     
  -1.3333333000000001        1.0000000000000000     
  -1.3288888000000001        1.0000000000000000     
  -1.3244444000000000        1.0000000000000000     
  -1.3199999000000000        1.0000000000000000     
  -1.3155555000000001        1.0000000000000000     
  -1.3111109999999999        1.0000000000000000     
  -1.3066666000000000        1.0000000000000000     
  -1.3022222000000001        1.0000000000000000     
  -1.2977776999999999        1.0000000000000000     
  -1.2933333000000000        1.0000000000000000     
  -1.2888888000000001        1.0000000000000000     
  -1.2844443999999999        1.0000000000000000     
  -1.2799999000000000        1.0000000000000000     
  -1.2755555000000001        1.0000000000000000     
  -1.2711110000000001        1.0000000000000000     
  -1.2666666000000000        1.0000000000000000     
  -1.2622222000000001        1.0000000000000000     
  -1.2577777000000001        1.0000000000000000     
  -1.2533333000000000        1.0000000000000000     
  -1.2488888000000000        1.0000000000000000     
  -1.2444443999999999        1.0000000000000000     
  -1.2399998999999999        1.0000000000000000     
  -1.2355555000000000        1.0000000000000000     
  -1.2311110000000001        1.0000000000000000     
  -1.2266665999999999        1.0000000000000000     
  -1.2222222000000000        1.0000000000000000     
  -1.2177777000000001        1.0000000000000000     
  -1.2133332999999999        1.0000000000000000     
  -1.2088888000000000        1.0000000000000000     
  -1.2044444000000001        1.0000000000000000     
  -1.1999998999999999        1.0000000000000000     
  -1.1955555000000000        1.0000000000000000     
  -1.1911110000000000        1.0000000000000000     
  -1.1866665999999999        1.0000000000000000     
  -1.1822222000000000        1.0000000000000000     
  -1.1777777000000000        1.0000000000000000     
  -1.1733332999999999        1.0000000000000000     
  -1.1688888000000000        1.0000000000000000     
  -1.1644444000000000        1.0000000000000000     
  -1.1599999000000001        1.0000000000000000     
  -1.1555555000000000        1.0000000000000000     
  -1.1511110000000000        1.0000000000000000     
  -1.1466666000000001        1.0000000000000000     
  -1.1422222000000000        1.0000000000000000     
  -1.1377777000000000        1.0000000000000000     
  -1.1333333000000001        1.0000000000000000     
  -1.1288887999999999        1.0000000000000000     
  -1.1244444000000000        1.0000000000000000     
  -1.1199999000000000        1.0000000000000000     
  -1.1155554999999999        1.0000000000000000     
  -1.1111110000000000        1.0000000000000000     
  -1.1066666000000001        1.0000000000000000     
  -1.1022221000000001        1.0000000000000000     
  -1.0977777000000000        1.0000000000000000     
  -1.0933333000000001        1.0000000000000000     
  -1.0888888000000001        1.0000000000000000     
  -1.0844444000000000        1.0000000000000000     
  -1.0799999000000000        1.0000000000000000     
  -1.0755555000000001        1.0000000000000000     
  -1.0711109999999999        1.0000000000000000     
  -1.0666666000000000        1.0000000000000000     
  -1.0622221000000001        1.0000000000000000     
  -1.0577776999999999        1.0000000000000000     
  -1.0533333000000000        1.0000000000000000     
  -1.0488888000000001        1.0000000000000000     
  -1.0444443999999999        1.0000000000000000     
  -1.0399999000000000        1.0000000000000000     
  -1.0355555000000001        1.0000000000000000     
  -1.0311110000000001        1.0000000000000000     
  -1.0266666000000000        1.0000000000000000     
  -1.0222221000000000        1.0000000000000000     
  -1.0177776999999999        1.0000000000000000     
  -1.0133333000000000        1.0000000000000000     
  -1.0088888000000000        1.0000000000000000     
  -1.0044443999999999        1.0000000000000000     
 -0.99999992000000004        1.0000000000000000     
 -0.99561396000000002        1.0000000000000000     
 -0.99122798999999995        1.0000000000000000     
 -0.98684203000000004        1.0000000000000000     
 -0.98245605999999996        1.0000000000000000     
 -0.97807010000000005        1.0000000000000000     
 -0.97368412999999998        1.0000000000000000     
 -0.96929816999999996        1.0000000000000000     
 -0.96491221000000005        1.0000000000000000     
 -0.96052623999999998        1.0000000000000000     
 -0.95614027999999995        1.0000000000000000     
 -0.95175430999999999        1.0000000000000000     
 -0.94736834999999997        1.0000000000000000     
  -1.9866665999999999        1.0089200000000000     
  -1.9822222000000000        1.0089200000000000     
  -1.9777777000000001        1.0089200000000000     
  -1.9733333000000000        1.0089200000000000     
  -1.9688888000000000        1.0089200000000000     
  -1.9644444000000001        1.0089200000000000     
  -1.9600000000000000        1.0089200000000000     
  -1.9555555000000000        1.0089200000000000     
  -1.9511111000000001        1.0089200000000000     
  -1.9466665999999999        1.0089200000000000     
  -1.9422222000000000        1.0089200000000000     
  -1.9377777000000000        1.0089200000000000     
  -1.9333332999999999        1.0089200000000000     
  -1.9288888000000000        1.0089200000000000     
  -1.9244444000000001        1.0089200000000000     
  -1.9199999999999999        1.0089200000000000     
  -1.9155555000000000        1.0089200000000000     
  -1.9111111000000001        1.0089200000000000     
  -1.9066666000000001        1.0089200000000000     
  -1.9022222000000000        1.0089200000000000     
  -1.8977777000000000        1.0089200000000000     
  -1.8933333000000001        1.0089200000000000     
  -1.8888887999999999        1.0089200000000000     
  -1.8844444000000000        1.0089200000000000     
  -1.8799999999999999        1.0089200000000000     
  -1.8755554999999999        1.0089200000000000     
  -1.8711111000000000        1.0089200000000000     
  -1.8666666000000001        1.0089200000000000     
  -1.8622221999999999        1.0089200000000000     
  -1.8577777000000000        1.0089200000000000     
  -1.8533333000000001        1.0089200000000000     
  -1.8488888000000001        1.0089200000000000     
  -1.8444444000000000        1.0089200000000000     
  -1.8400000000000001        1.0089200000000000     
  -1.8355554999999999        1.0089200000000000     
  -1.8311111000000000        1.0089200000000000     
  -1.8266666000000000        1.0089200000000000     
  -1.8222221999999999        1.0089200000000000     
  -1.8177776999999999        1.0089200000000000     
  -1.8133333000000000        1.0089200000000000     
  -1.8088888000000001        1.0089200000000000     
  -1.8044443999999999        1.0089200000000000     
  -1.8000000000000000        1.0089200000000000     
  -1.7955555000000001        1.0089200000000000     
  -1.7911111000000000        1.0089200000000000     
  -1.7866666000000000        1.0089200000000000     
  -1.7822222000000001        1.0089200000000000     
  -1.7777776999999999        1.0089200000000000     
  -1.7733333000000000        1.0089200000000000     
  -1.7688888000000000        1.0089200000000000     
  -1.7644443999999999        1.0089200000000000     
  -1.7600000000000000        1.0089200000000000     
  -1.7555555000000000        1.0089200000000000     
  -1.7511110999999999        1.0089200000000000     
  -1.7466666000000000        1.0089200000000000     
  -1.7422222000000001        1.0089200000000000     
  -1.7377777000000001        1.0089200000000000     
  -1.7333333000000000        1.0089200000000000     
  -1.7288888000000000        1.0089200000000000     
  -1.7244444000000001        1.0089200000000000     
  -1.7200000000000000        1.0089200000000000     
  -1.7155555000000000        1.0089200000000000     
  -1.7111111000000001        1.0089200000000000     
  -1.7066665999999999        1.0089200000000000     
  -1.7022222000000000        1.0089200000000000     
  -1.6977777000000001        1.0089200000000000     
  -1.6933332999999999        1.0089200000000000     
  -1.6888888000000000        1.0089200000000000     
  -1.6844444000000001        1.0089200000000000     
  -1.6799999000000001        1.0089200000000000     
  -1.6755555000000000        1.0089200000000000     
  -1.6711111000000001        1.0089200000000000     
  -1.6666666000000001        1.0089200000000000     
  -1.6622222000000000        1.0089200000000000     
  -1.6577777000000000        1.0089200000000000     
  -1.6533332999999999        1.0089200000000000     
  -1.6488887999999999        1.0089200000000000     
  -1.6444444000000000        1.0089200000000000     
  -1.6399999000000001        1.0089200000000000     
  -1.6355554999999999        1.0089200000000000     
  -1.6311111000000000        1.0089200000000000     
  -1.6266666000000001        1.0089200000000000     
  -1.6222221999999999        1.0089200000000000     
  -1.6177777000000000        1.0089200000000000     
  -1.6133333000000001        1.0089200000000000     
  -1.6088887999999999        1.0089200000000000     
  -1.6044444000000000        1.0089200000000000     
  -1.5999999000000000        1.0089200000000000     
  -1.5955554999999999        1.0089200000000000     
  -1.5911111000000000        1.0089200000000000     
  -1.5866666000000000        1.0089200000000000     
  -1.5822221999999999        1.0089200000000000     
  -1.5777776999999999        1.0089200000000000     
  -1.5733333000000000        1.0089200000000000     
  -1.5688888000000001        1.0089200000000000     
  -1.5644444000000000        1.0089200000000000     
  -1.5599999000000000        1.0089200000000000     
  -1.5555555000000001        1.0089200000000000     
  -1.5511111000000000        1.0089200000000000     
  -1.5466666000000000        1.0089200000000000     
  -1.5422222000000001        1.0089200000000000     
  -1.5377776999999999        1.0089200000000000     
  -1.5333333000000000        1.0089200000000000     
  -1.5288888000000000        1.0089200000000000     
  -1.5244443999999999        1.0089200000000000     
  -1.5199999000000000        1.0089200000000000     
  -1.5155555000000001        1.0089200000000000     
  -1.5111110999999999        1.0089200000000000     
  -1.5066666000000000        1.0089200000000000     
  -1.5022222000000001        1.0089200000000000     
  -1.4977777000000001        1.0089200000000000     
  -1.4933333000000000        1.0089200000000000     
  -1.4888888000000000        1.0089200000000000     
  -1.4844444000000001        1.0089200000000000     
  -1.4799998999999999        1.0089200000000000     
  -1.4755555000000000        1.0089200000000000     
  -1.4711110999999999        1.0089200000000000     
  -1.4666665999999999        1.0089200000000000     
  -1.4622222000000000        1.0089200000000000     
  -1.4577777000000001        1.0089200000000000     
  -1.4533332999999999        1.0089200000000000     
  -1.4488888000000000        1.0089200000000000     
  -1.4444444000000001        1.0089200000000000     
  -1.4399999000000001        1.0089200000000000     
  -1.4355555000000000        1.0089200000000000     
  -1.4311111000000001        1.0089200000000000     
  -1.4266665999999999        1.0089200000000000     
  -1.4222222000000000        1.0089200000000000     
  -1.4177777000000000        1.0089200000000000     
  -1.4133332999999999        1.0089200000000000     
  -1.4088887999999999        1.0089200000000000     
  -1.4044444000000000        1.0089200000000000     
  -1.3999999000000001        1.0089200000000000     
  -1.3955554999999999        1.0089200000000000     
  -1.3911110000000000        1.0089200000000000     
  -1.3866666000000001        1.0089200000000000     
  -1.3822222000000000        1.0089200000000000     
  -1.3777777000000000        1.0089200000000000     
  -1.3733333000000001        1.0089200000000000     
  -1.3688887999999999        1.0089200000000000     
  -1.3644444000000000        1.0089200000000000     
  -1.3599999000000000        1.0089200000000000     
  -1.3555554999999999        1.0089200000000000     
  -1.3511110000000000        1.0089200000000000     
  -1.3466666000000000        1.0089200000000000     
  -1.3422221999999999        1.0089200000000000     
  -1.3377777000000000        1.0089200000000000     
  -1.3333333000000001        1.0089200000000000     
  -1.3288888000000001        1.0089200000000000     
  -1.3244444000000000        1.0089200000000000     
  -1.3199999000000000        1.0089200000000000     
  -1.3155555000000001        1.0089200000000000     
  -1.3111109999999999        1.0089200000000000     
  -1.3066666000000000        1.0089200000000000     
  -1.3022222000000001        1.0089200000000000     
  -1.2977776999999999        1.0089200000000000     
  -1.2933333000000000        1.0089200000000000     
  -1.2888888000000001        1.0089200000000000     
  -1.2844443999999999        1.0089200000000000     
  -1.2799999000000000        1.0089200000000000     
  -1.2755555000000001        1.0089200000000000     
  -1.2711110000000001        1.0089200000000000     
  -1.2666666000000000        1.0089200000000000     
  -1.2622222000000001        1.0089200000000000     
  -1.2577777000000001        1.0089200000000000     
  -1.2533333000000000        1.0089200000000000     
  -1.2488888000000000        1.0089200000000000     
  -1.2444443999999999        1.0089200000000000     
  -1.2399998999999999        1.0089200000000000     
  -1.2355555000000000        1.0089200000000000     
  -1.2311110000000001        1.0089200000000000     
  -1.2266665999999999        1.0089200000000000     
  -1.2222222000000000        1.0089200000000000     
  -1.2177777000000001        1.0089200000000000     
  -1.2133332999999999        1.0089200000000000     
  -1.2088888000000000        1.0089200000000000     
  -1.2044444000000001        1.0089200000000000     
  -1.1999998999999999        1.0089200000000000     
  -1.1955555000000000        1.0089200000000000     
  -1.1911110000000000        1.0089200000000000     
  -1.1866665999999999        1.0089200000000000     
  -1.1822222000000000        1.0089200000000000     
  -1.1777777000000000        1.0089200000000000     
  -1.1733332999999999        1.0089200000000000     
  -1.1688888000000000        1.0089200000000000     
  -1.1644444000000000        1.0089200000000000     
  -1.1599999000000001        1.0089200000000000     
  -1.1555555000000000        1.0089200000000000     
  -1.1511110000000000        1.0089200000000000     
  -1.1466666000000001        1.0089200000000000     
  -1.1422222000000000        1.0089200000000000     
  -1.1377777000000000        1.0089200000000000     
  -1.1333333000000001        1.0089200000000000     
  -1.1288887999999999        1.0089200000000000     
  -1.1244444000000000        1.0089200000000000     
  -1.1199999000000000        1.0089200000000000     
  -1.1155554999999999        1.0089200000000000     
  -1.1111110000000000        1.0089200000000000     
  -1.1066666000000001        1.0089200000000000     
  -1.1022221000000001        1.0089200000000000     
  -1.0977777000000000        1.0089200000000000     
  -1.0933333000000001        1.0089200000000000     
  -1.0888888000000001        1.0089200000000000     
  -1.0844444000000000        1.0089200000000000     
  -1.0799999000000000        1.0089200000000000     
  -1.0755555000000001        1.0089200000000000     
  -1.0711109999999999        1.0089200000000000     
  -1.0666666000000000        1.0089200000000000     
  -1.0622221000000001        1.0089200000000000     
  -1.0577776999999999        1.0089200000000000     
  -1.0533333000000000        1.0089200000000000     
  -1.0488888000000001        1.0089200000000000     
  -1.0444443999999999        1.0089200000000000     
  -1.0399999000000000        1.0089200000000000     
  -1.0355555000000001        1.0089200000000000     
  -1.0311110000000001        1.0089200000000000     
  -1.0266666000000000        1.0089200000000000     
  -1.0222221000000000        1.0089200000000000     
  -1.0177776999999999        1.0089200000000000     
  -1.0133333000000000        1.0089200000000000     
  -1.0088888000000000        1.0089200000000000     
  -1.0044443999999999        1.0089200000000000     
 -0.99999992000000004        1.0089200000000000     
 -0.99561396000000002        1.0089200000000000     
 -0.99122798999999995        1.0089200000000000     
 -0.98684203000000004        1.0089200000000000     
 -0.98245605999999996        1.0089200000000000     
 -0.97807010000000005        1.0089200000000000     
 -0.97368412999999998        1.0089200000000000     
 -0.96929816999999996        1.0089200000000000     
 -0.96491221000000005        1.0089200000000000     
 -0.96052623999999998        1.0089200000000000     
 -0.95614027999999995        1.0089200000000000     
 -0.95175430999999999        1.0089200000000000     
 -0.94736834999999997        1.0089200000000000     
  -1.9866665999999999        1.0178269000000000     
  -1.9822222000000000        1.0178269000000000     
  -1.9777777000000001        1.0178269000000000     
  -1.9733333000000000        1.0178269000000000     
  -1.9688888000000000        1.0178269000000000     
  -1.9644444000000001        1.0178269000000000     
  -1.9600000000000000        1.0178269000000000     
  -1.9555555000000000        1.0178269000000000     
  -1.9511111000000001        1.0178269000000000     
  -1.9466665999999999        1.0178269000000000     
  -1.9422222000000000        1.0178269000000000     
  -1.9377777000000000        1.0178269000000000     
  -1.9333332999999999        1.0178269000000000     
  -1.9288888000000000        1.0178269000000000     
  -1.9244444000000001        1.0178269000000000     
  -1.9199999999999999        1.0178269000000000     
  -1.9155555000000000        1.0178269000000000     
  -1.9111111000000001        1.0178269000000000     
  -1.9066666000000001        1.0178269000000000     
  -1.9022222000000000        1.0178269000000000     
  -1.8977777000000000        1.0178269000000000     
  -1.8933333000000001        1.0178269000000000     
  -1.8888887999999999        1.0178269000000000     
  -1.8844444000000000        1.0178269000000000     
  -1.8799999999999999        1.0178269000000000     
  -1.8755554999999999        1.0178269000000000     
  -1.8711111000000000        1.0178269000000000     
  -1.8666666000000001        1.0178269000000000     
  -1.8622221999999999        1.0178269000000000     
  -1.8577777000000000        1.0178269000000000     
  -1.8533333000000001        1.0178269000000000     
  -1.8488888000000001        1.0178269000000000     
  -1.8444444000000000        1.0178269000000000     
  -1.8400000000000001        1.0178269000000000     
  -1.8355554999999999        1.0178269000000000     
  -1.8311111000000000        1.0178269000000000     
  -1.8266666000000000        1.0178269000000000     
  -1.8222221999999999        1.0178269000000000     
  -1.8177776999999999        1.0178269000000000     
  -1.8133333000000000        1.0178269000000000     
  -1.8088888000000001        1.0178269000000000     
  -1.8044443999999999        1.0178269000000000     
  -1.8000000000000000        1.0178269000000000     
  -1.7955555000000001        1.0178269000000000     
  -1.7911111000000000        1.0178269000000000     
  -1.7866666000000000        1.0178269000000000     
  -1.7822222000000001        1.0178269000000000     
  -1.7777776999999999        1.0178269000000000     
  -1.7733333000000000        1.0178269000000000     
  -1.7688888000000000        1.0178269000000000     
  -1.7644443999999999        1.0178269000000000     
  -1.7600000000000000        1.0178269000000000     
  -1.7555555000000000        1.0178269000000000     
  -1.7511110999999999        1.0178269000000000     
  -1.7466666000000000        1.0178269000000000     
  -1.7422222000000001        1.0178269000000000     
  -1.7377777000000001        1.0178269000000000     
  -1.7333333000000000        1.0178269000000000     
  -1.7288888000000000        1.0178269000000000     
  -1.7244444000000001        1.0178269000000000     
  -1.7200000000000000        1.0178269000000000     
  -1.7155555000000000        1.0178269000000000     
  -1.7111111000000001        1.0178269000000000     
  -1.7066665999999999        1.0178269000000000     
  -1.7022222000000000        1.0178269000000000     
  -1.6977777000000001        1.0178269000000000     
  -1.6933332999999999        1.0178269000000000     
  -1.6888888000000000        1.0178269000000000     
  -1.6844444000000001        1.0178269000000000     
  -1.6799999000000001        1.0178269000000000     
  -1.6755555000000000        1.0178269000000000     
  -1.6711111000000001        1.0178269000000000     
  -1.6666666000000001        1.0178269000000000     
  -1.6622222000000000        1.0178269000000000     
  -1.6577777000000000        1.0178269000000000     
  -1.6533332999999999        1.0178269000000000     
  -1.6488887999999999        1.0178269000000000     
  -1.6444444000000000        1.0178269000000000     
  -1.6399999000000001        1.0178269000000000     
  -1.6355554999999999        1.0178269000000000     
  -1.6311111000000000        1.0178269000000000     
  -1.6266666000000001        1.0178269000000000     
  -1.6222221999999999        1.0178269000000000     
  -1.6177777000000000        1.0178269000000000     
  -1.6133333000000001        1.0178269000000000     
  -1.6088887999999999        1.0178269000000000     
  -1.6044444000000000        1.0178269000000000     
  -1.5999999000000000        1.0178269000000000     
  -1.5955554999999999        1.0178269000000000     
  -1.5911111000000000        1.0178269000000000     
  -1.5866666000000000        1.0178269000000000     
  -1.5822221999999999        1.0178269000000000     
  -1.5777776999999999        1.0178269000000000     
  -1.5733333000000000        1.0178269000000000     