 TITLE = "GRIDBLO_BC0003"
 VARIABLES = "X","Y"
ZONE I=   121,J=    67  ,DATAPACKING=POINT
  -2.4933333000000002        4.4642859139999999E-003
  -2.4888889000000001        4.4642859139999999E-003
  -2.4844444000000001        4.4642859139999999E-003
  -2.4800000000000000        4.4642859139999999E-003
  -2.4755555000000000        4.4642859139999999E-003
  -2.4711110999999999        4.4642859139999999E-003
  -2.4666665999999999        4.4642859139999999E-003
  -2.4622221999999998        4.4642859139999999E-003
  -2.4577778000000001        4.4642859139999999E-003
  -2.4533333000000002        4.4642859139999999E-003
  -2.4488889000000000        4.4642859139999999E-003
  -2.4444444000000001        4.4642859139999999E-003
  -2.4399999999999999        4.4642859139999999E-003
  -2.4355555000000000        4.4642859139999999E-003
  -2.4311110999999999        4.4642859139999999E-003
  -2.4266665999999999        4.4642859139999999E-003
  -2.4222222000000002        4.4642859139999999E-003
  -2.4177778000000001        4.4642859139999999E-003
  -2.4133333000000001        4.4642859139999999E-003
  -2.4088889000000000        4.4642859139999999E-003
  -2.4044444000000000        4.4642859139999999E-003
  -2.3999999999999999        4.4642859139999999E-003
  -2.3955554999999999        4.4642859139999999E-003
  -2.3911110999999998        4.4642859139999999E-003
  -2.3866665999999999        4.4642859139999999E-003
  -2.3822222000000002        4.4642859139999999E-003
  -2.3777778000000001        4.4642859139999999E-003
  -2.3733333000000001        4.4642859139999999E-003
  -2.3688889000000000        4.4642859139999999E-003
  -2.3644444000000000        4.4642859139999999E-003
  -2.3599999999999999        4.4642859139999999E-003
  -2.3555554999999999        4.4642859139999999E-003
  -2.3511110999999998        4.4642859139999999E-003
  -2.3466665999999998        4.4642859139999999E-003
  -2.3422222000000001        4.4642859139999999E-003
  -2.3377778000000000        4.4642859139999999E-003
  -2.3333333000000001        4.4642859139999999E-003
  -2.3288888999999999        4.4642859139999999E-003
  -2.3244444000000000        4.4642859139999999E-003
  -2.3199999999999998        4.4642859139999999E-003
  -2.3155554999999999        4.4642859139999999E-003
  -2.3111111000000002        4.4642859139999999E-003
  -2.3066665999999998        4.4642859139999999E-003
  -2.3022222000000001        4.4642859139999999E-003
  -2.2977778000000000        4.4642859139999999E-003
  -2.2933333000000000        4.4642859139999999E-003
  -2.2888888999999999        4.4642859139999999E-003
  -2.2844443999999999        4.4642859139999999E-003
  -2.2799999999999998        4.4642859139999999E-003
  -2.2755554999999998        4.4642859139999999E-003
  -2.2711111000000002        4.4642859139999999E-003
  -2.2666666000000002        4.4642859139999999E-003
  -2.2622222000000001        4.4642859139999999E-003
  -2.2577777000000001        4.4642859139999999E-003
  -2.2533333000000000        4.4642859139999999E-003
  -2.2488888999999999        4.4642859139999999E-003
  -2.2444443999999999        4.4642859139999999E-003
  -2.2400000000000002        4.4642859139999999E-003
  -2.2355554999999998        4.4642859139999999E-003
  -2.2311111000000001        4.4642859139999999E-003
  -2.2266666000000002        4.4642859139999999E-003
  -2.2222222000000000        4.4642859139999999E-003
  -2.2177777000000001        4.4642859139999999E-003
  -2.2133332999999999        4.4642859139999999E-003
  -2.2088888999999998        4.4642859139999999E-003
  -2.2044443999999999        4.4642859139999999E-003
  -2.2000000000000002        4.4642859139999999E-003
  -2.1955555000000002        4.4642859139999999E-003
  -2.1911111000000001        4.4642859139999999E-003
  -2.1866666000000001        4.4642859139999999E-003
  -2.1822222000000000        4.4642859139999999E-003
  -2.1777777000000000        4.4642859139999999E-003
  -2.1733332999999999        4.4642859139999999E-003
  -2.1688888999999998        4.4642859139999999E-003
  -2.1644443999999998        4.4642859139999999E-003
  -2.1600000000000001        4.4642859139999999E-003
  -2.1555555000000002        4.4642859139999999E-003
  -2.1511111000000001        4.4642859139999999E-003
  -2.1466666000000001        4.4642859139999999E-003
  -2.1422222000000000        4.4642859139999999E-003
  -2.1377777000000000        4.4642859139999999E-003
  -2.1333332999999999        4.4642859139999999E-003
  -2.1288889000000002        4.4642859139999999E-003
  -2.1244443999999998        4.4642859139999999E-003
  -2.1200000000000001        4.4642859139999999E-003
  -2.1155555000000001        4.4642859139999999E-003
  -2.1111111000000000        4.4642859139999999E-003
  -2.1066666000000001        4.4642859139999999E-003
  -2.1022221999999999        4.4642859139999999E-003
  -2.0977777000000000        4.4642859139999999E-003
  -2.0933332999999998        4.4642859139999999E-003
  -2.0888889000000002        4.4642859139999999E-003
  -2.0844444000000002        4.4642859139999999E-003
  -2.0800000000000001        4.4642859139999999E-003
  -2.0755555000000001        4.4642859139999999E-003
  -2.0711111000000000        4.4642859139999999E-003
  -2.0666666000000000        4.4642859139999999E-003
  -2.0622221999999999        4.4642859139999999E-003
  -2.0577776999999999        4.4642859139999999E-003
  -2.0533332999999998        4.4642859139999999E-003
  -2.0488889000000001        4.4642859139999999E-003
  -2.0444444000000002        4.4642859139999999E-003
  -2.0400000000000000        4.4642859139999999E-003
  -2.0355555000000001        4.4642859139999999E-003
  -2.0311110999999999        4.4642859139999999E-003
  -2.0266666000000000        4.4642859139999999E-003
  -2.0222221999999999        4.4642859139999999E-003
  -2.0177776999999999        4.4642859139999999E-003
  -2.0133333000000002        4.4642859139999999E-003
  -2.0088889000000001        4.4642859139999999E-003
  -2.0044444000000001        4.4642859139999999E-003
  -2.0000000000000000        4.4642859139999999E-003
  -1.9955555000000000        4.4642859139999999E-003
  -1.9911110999999999        4.4642859139999999E-003
  -1.9866665999999999        4.4642859139999999E-003
  -1.9822222000000000        4.4642859139999999E-003
  -1.9777777000000001        4.4642859139999999E-003
  -1.9733333000000000        4.4642859139999999E-003
  -1.9688888000000000        4.4642859139999999E-003
  -1.9644444000000001        4.4642859139999999E-003
  -1.9600000000000000        4.4642859139999999E-003
  -2.4933333000000002        4.3859650000000003E-003
  -2.4888889000000001        4.3859650000000003E-003
  -2.4844444000000001        4.3859650000000003E-003
  -2.4800000000000000        4.3859650000000003E-003
  -2.4755555000000000        4.3859650000000003E-003
  -2.4711110999999999        4.3859650000000003E-003
  -2.4666665999999999        4.3859650000000003E-003
  -2.4622221999999998        4.3859650000000003E-003
  -2.4577778000000001        4.3859650000000003E-003
  -2.4533333000000002        4.3859650000000003E-003
  -2.4488889000000000        4.3859650000000003E-003
  -2.4444444000000001        4.3859650000000003E-003
  -2.4399999999999999        4.3859650000000003E-003
  -2.4355555000000000        4.3859650000000003E-003
  -2.4311110999999999        4.3859650000000003E-003
  -2.4266665999999999        4.3859650000000003E-003
  -2.4222222000000002        4.3859650000000003E-003
  -2.4177778000000001        4.3859650000000003E-003
  -2.4133333000000001        4.3859650000000003E-003
  -2.4088889000000000        4.3859650000000003E-003
  -2.4044444000000000        4.3859650000000003E-003
  -2.3999999999999999        4.3859650000000003E-003
  -2.3955554999999999        4.3859650000000003E-003
  -2.3911110999999998        4.3859650000000003E-003
  -2.3866665999999999        4.3859650000000003E-003
  -2.3822222000000002        4.3859650000000003E-003
  -2.3777778000000001        4.3859650000000003E-003
  -2.3733333000000001        4.3859650000000003E-003
  -2.3688889000000000        4.3859650000000003E-003
  -2.3644444000000000        4.3859650000000003E-003
  -2.3599999999999999        4.3859650000000003E-003
  -2.3555554999999999        4.3859650000000003E-003
  -2.3511110999999998        4.3859650000000003E-003
  -2.3466665999999998        4.3859650000000003E-003
  -2.3422222000000001        4.3859650000000003E-003
  -2.3377778000000000        4.3859650000000003E-003
  -2.3333333000000001        4.3859650000000003E-003
  -2.3288888999999999        4.3859650000000003E-003
  -2.3244444000000000        4.3859650000000003E-003
  -2.3199999999999998        4.3859650000000003E-003
  -2.3155554999999999        4.3859650000000003E-003
  -2.3111111000000002        4.3859650000000003E-003
  -2.3066665999999998        4.3859650000000003E-003
  -2.3022222000000001        4.3859650000000003E-003
  -2.2977778000000000        4.3859650000000003E-003
  -2.2933333000000000        4.3859650000000003E-003
  -2.2888888999999999        4.3859650000000003E-003
  -2.2844443999999999        4.3859650000000003E-003
  -2.2799999999999998        4.3859650000000003E-003
  -2.2755554999999998        4.3859650000000003E-003
  -2.2711111000000002        4.3859650000000003E-003
  -2.2666666000000002        4.3859650000000003E-003
  -2.2622222000000001        4.3859650000000003E-003
  -2.2577777000000001        4.3859650000000003E-003
  -2.2533333000000000        4.3859650000000003E-003
  -2.2488888999999999        4.3859650000000003E-003
  -2.2444443999999999        4.3859650000000003E-003
  -2.2400000000000002        4.3859650000000003E-003
  -2.2355554999999998        4.3859650000000003E-003
  -2.2311111000000001        4.3859650000000003E-003
  -2.2266666000000002        4.3859650000000003E-003
  -2.2222222000000000        4.3859650000000003E-003
  -2.2177777000000001        4.3859650000000003E-003
  -2.2133332999999999        4.3859650000000003E-003
  -2.2088888999999998        4.3859650000000003E-003
  -2.2044443999999999        4.3859650000000003E-003
  -2.2000000000000002        4.3859650000000003E-003
  -2.1955555000000002        4.3859650000000003E-003
  -2.1911111000000001        4.3859650000000003E-003
  -2.1866666000000001        4.3859650000000003E-003
  -2.1822222000000000        4.3859650000000003E-003
  -2.1777777000000000        4.3859650000000003E-003
  -2.1733332999999999        4.3859650000000003E-003
  -2.1688888999999998        4.3859650000000003E-003
  -2.1644443999999998        4.3859650000000003E-003
  -2.1600000000000001        4.3859650000000003E-003
  -2.1555555000000002        4.3859650000000003E-003
  -2.1511111000000001        4.3859650000000003E-003
  -2.1466666000000001        4.3859650000000003E-003
  -2.1422222000000000        4.3859650000000003E-003
  -2.1377777000000000        4.3859650000000003E-003
  -2.1333332999999999        4.3859650000000003E-003
  -2.1288889000000002        4.3859650000000003E-003
  -2.1244443999999998        4.3859650000000003E-003
  -2.1200000000000001        4.3859650000000003E-003
  -2.1155555000000001        4.3859650000000003E-003
  -2.1111111000000000        4.3859650000000003E-003
  -2.1066666000000001        4.3859650000000003E-003
  -2.1022221999999999        4.3859650000000003E-003
  -2.0977777000000000        4.3859650000000003E-003
  -2.0933332999999998        4.3859650000000003E-003
  -2.0888889000000002        4.3859650000000003E-003
  -2.0844444000000002        4.3859650000000003E-003
  -2.0800000000000001        4.3859650000000003E-003
  -2.0755555000000001        4.3859650000000003E-003
  -2.0711111000000000        4.3859650000000003E-003
  -2.0666666000000000        4.3859650000000003E-003
  -2.0622221999999999        4.3859650000000003E-003
  -2.0577776999999999        4.3859650000000003E-003
  -2.0533332999999998        4.3859650000000003E-003
  -2.0488889000000001        4.3859650000000003E-003
  -2.0444444000000002        4.3859650000000003E-003
  -2.0400000000000000        4.3859650000000003E-003
  -2.0355555000000001        4.3859650000000003E-003
  -2.0311110999999999        4.3859650000000003E-003
  -2.0266666000000000        4.3859650000000003E-003
  -2.0222221999999999        4.3859650000000003E-003
  -2.0177776999999999        4.3859650000000003E-003
  -2.0133333000000002        4.3859650000000003E-003
  -2.0088889000000001        4.3859650000000003E-003
  -2.0044444000000001        4.3859650000000003E-003
  -2.0000000000000000        4.3859650000000003E-003
  -1.9955555000000000        4.3859650000000003E-003
  -1.9911110999999999        4.3859650000000003E-003
  -1.9866665999999999        4.3859650000000003E-003
  -1.9822222000000000        4.3859650000000003E-003
  -1.9777777000000001        4.3859650000000003E-003
  -1.9733333000000000        4.3859650000000003E-003
  -1.9688888000000000        4.3859650000000003E-003
  -1.9644444000000001        4.3859650000000003E-003
  -1.9600000000000000        4.3859650000000003E-003
  -2.4933333000000002        8.7719301000000003E-003
  -2.4888889000000001        8.7719301000000003E-003
  -2.4844444000000001        8.7719301000000003E-003
  -2.4800000000000000        8.7719301000000003E-003
  -2.4755555000000000        8.7719301000000003E-003
  -2.4711110999999999        8.7719301000000003E-003
  -2.4666665999999999        8.7719301000000003E-003
  -2.4622221999999998        8.7719301000000003E-003
  -2.4577778000000001        8.7719301000000003E-003
  -2.4533333000000002        8.7719301000000003E-003
  -2.4488889000000000        8.7719301000000003E-003
  -2.4444444000000001        8.7719301000000003E-003
  -2.4399999999999999        8.7719301000000003E-003
  -2.4355555000000000        8.7719301000000003E-003
  -2.4311110999999999        8.7719301000000003E-003
  -2.4266665999999999        8.7719301000000003E-003
  -2.4222222000000002        8.7719301000000003E-003
  -2.4177778000000001        8.7719301000000003E-003
  -2.4133333000000001        8.7719301000000003E-003
  -2.4088889000000000        8.7719301000000003E-003
  -2.4044444000000000        8.7719301000000003E-003
  -2.3999999999999999        8.7719301000000003E-003
  -2.3955554999999999        8.7719301000000003E-003
  -2.3911110999999998        8.7719301000000003E-003
  -2.3866665999999999        8.7719301000000003E-003
  -2.3822222000000002        8.7719301000000003E-003
  -2.3777778000000001        8.7719301000000003E-003
  -2.3733333000000001        8.7719301000000003E-003
  -2.3688889000000000        8.7719301000000003E-003
  -2.3644444000000000        8.7719301000000003E-003
  -2.3599999999999999        8.7719301000000003E-003
  -2.3555554999999999        8.7719301000000003E-003
  -2.3511110999999998        8.7719301000000003E-003
  -2.3466665999999998        8.7719301000000003E-003
  -2.3422222000000001        8.7719301000000003E-003
  -2.3377778000000000        8.7719301000000003E-003
  -2.3333333000000001        8.7719301000000003E-003
  -2.3288888999999999        8.7719301000000003E-003
  -2.3244444000000000        8.7719301000000003E-003
  -2.3199999999999998        8.7719301000000003E-003
  -2.3155554999999999        8.7719301000000003E-003
  -2.3111111000000002        8.7719301000000003E-003
  -2.3066665999999998        8.7719301000000003E-003
  -2.3022222000000001        8.7719301000000003E-003
  -2.2977778000000000        8.7719301000000003E-003
  -2.2933333000000000        8.7719301000000003E-003
  -2.2888888999999999        8.7719301000000003E-003
  -2.2844443999999999        8.7719301000000003E-003
  -2.2799999999999998        8.7719301000000003E-003
  -2.2755554999999998        8.7719301000000003E-003
  -2.2711111000000002        8.7719301000000003E-003
  -2.2666666000000002        8.7719301000000003E-003
  -2.2622222000000001        8.7719301000000003E-003
  -2.2577777000000001        8.7719301000000003E-003
  -2.2533333000000000        8.7719301000000003E-003
  -2.2488888999999999        8.7719301000000003E-003
  -2.2444443999999999        8.7719301000000003E-003
  -2.2400000000000002        8.7719301000000003E-003
  -2.2355554999999998        8.7719301000000003E-003
  -2.2311111000000001        8.7719301000000003E-003
  -2.2266666000000002        8.7719301000000003E-003
  -2.2222222000000000        8.7719301000000003E-003
  -2.2177777000000001        8.7719301000000003E-003
  -2.2133332999999999        8.7719301000000003E-003
  -2.2088888999999998        8.7719301000000003E-003
  -2.2044443999999999        8.7719301000000003E-003
  -2.2000000000000002        8.7719301000000003E-003
  -2.1955555000000002        8.7719301000000003E-003
  -2.1911111000000001        8.7719301000000003E-003
  -2.1866666000000001        8.7719301000000003E-003
  -2.1822222000000000        8.7719301000000003E-003
  -2.1777777000000000        8.7719301000000003E-003
  -2.1733332999999999        8.7719301000000003E-003
  -2.1688888999999998        8.7719301000000003E-003
  -2.1644443999999998        8.7719301000000003E-003
  -2.1600000000000001        8.7719301000000003E-003
  -2.1555555000000002        8.7719301000000003E-003
  -2.1511111000000001        8.7719301000000003E-003
  -2.1466666000000001        8.7719301000000003E-003
  -2.1422222000000000        8.7719301000000003E-003
  -2.1377777000000000        8.7719301000000003E-003
  -2.1333332999999999        8.7719301000000003E-003
  -2.1288889000000002        8.7719301000000003E-003
  -2.1244443999999998        8.7719301000000003E-003
  -2.1200000000000001        8.7719301000000003E-003
  -2.1155555000000001        8.7719301000000003E-003
  -2.1111111000000000        8.7719301000000003E-003
  -2.1066666000000001        8.7719301000000003E-003
  -2.1022221999999999        8.7719301000000003E-003
  -2.0977777000000000        8.7719301000000003E-003
  -2.0933332999999998        8.7719301000000003E-003
  -2.0888889000000002        8.7719301000000003E-003
  -2.0844444000000002        8.7719301000000003E-003
  -2.0800000000000001        8.7719301000000003E-003
  -2.0755555000000001        8.7719301000000003E-003
  -2.0711111000000000        8.7719301000000003E-003
  -2.0666666000000000        8.7719301000000003E-003
  -2.0622221999999999        8.7719301000000003E-003
  -2.0577776999999999        8.7719301000000003E-003
  -2.0533332999999998        8.7719301000000003E-003
  -2.0488889000000001        8.7719301000000003E-003
  -2.0444444000000002        8.7719301000000003E-003
  -2.0400000000000000        8.7719301000000003E-003
  -2.0355555000000001        8.7719301000000003E-003
  -2.0311110999999999        8.7719301000000003E-003
  -2.0266666000000000        8.7719301000000003E-003
  -2.0222221999999999        8.7719301000000003E-003
  -2.0177776999999999        8.7719301000000003E-003
  -2.0133333000000002        8.7719301000000003E-003
  -2.0088889000000001        8.7719301000000003E-003
  -2.0044444000000001        8.7719301000000003E-003
  -2.0000000000000000        8.7719301000000003E-003
  -1.9955555000000000        8.7719301000000003E-003
  -1.9911110999999999        8.7719301000000003E-003
  -1.9866665999999999        8.7719301000000003E-003
  -1.9822222000000000        8.7719301000000003E-003
  -1.9777777000000001        8.7719301000000003E-003
  -1.9733333000000000        8.7719301000000003E-003
  -1.9688888000000000        8.7719301000000003E-003
  -1.9644444000000001        8.7719301000000003E-003
  -1.9600000000000000        8.7719301000000003E-003
  -2.4933333000000002        1.3157894999999999E-002
  -2.4888889000000001        1.3157894999999999E-002
  -2.4844444000000001        1.3157894999999999E-002
  -2.4800000000000000        1.3157894999999999E-002
  -2.4755555000000000        1.3157894999999999E-002
  -2.4711110999999999        1.3157894999999999E-002
  -2.4666665999999999        1.3157894999999999E-002
  -2.4622221999999998        1.3157894999999999E-002
  -2.4577778000000001        1.3157894999999999E-002
  -2.4533333000000002        1.3157894999999999E-002
  -2.4488889000000000        1.3157894999999999E-002
  -2.4444444000000001        1.3157894999999999E-002
  -2.4399999999999999        1.3157894999999999E-002
  -2.4355555000000000        1.3157894999999999E-002
  -2.4311110999999999        1.3157894999999999E-002
  -2.4266665999999999        1.3157894999999999E-002
  -2.4222222000000002        1.3157894999999999E-002
  -2.4177778000000001        1.3157894999999999E-002
  -2.4133333000000001        1.3157894999999999E-002
  -2.4088889000000000        1.3157894999999999E-002
  -2.4044444000000000        1.3157894999999999E-002
  -2.3999999999999999        1.3157894999999999E-002
  -2.3955554999999999        1.3157894999999999E-002
  -2.3911110999999998        1.3157894999999999E-002
  -2.3866665999999999        1.3157894999999999E-002
  -2.3822222000000002        1.3157894999999999E-002
  -2.3777778000000001        1.3157894999999999E-002
  -2.3733333000000001        1.3157894999999999E-002
  -2.3688889000000000        1.3157894999999999E-002
  -2.3644444000000000        1.3157894999999999E-002
  -2.3599999999999999        1.3157894999999999E-002
  -2.3555554999999999        1.3157894999999999E-002
  -2.3511110999999998        1.3157894999999999E-002
  -2.3466665999999998        1.3157894999999999E-002
  -2.3422222000000001        1.3157894999999999E-002
  -2.3377778000000000        1.3157894999999999E-002
  -2.3333333000000001        1.3157894999999999E-002
  -2.3288888999999999        1.3157894999999999E-002
  -2.3244444000000000        1.3157894999999999E-002
  -2.3199999999999998        1.3157894999999999E-002
  -2.3155554999999999        1.3157894999999999E-002
  -2.3111111000000002        1.3157894999999999E-002
  -2.3066665999999998        1.3157894999999999E-002
  -2.3022222000000001        1.3157894999999999E-002
  -2.2977778000000000        1.3157894999999999E-002
  -2.2933333000000000        1.3157894999999999E-002
  -2.2888888999999999        1.3157894999999999E-002
  -2.2844443999999999        1.3157894999999999E-002
  -2.2799999999999998        1.3157894999999999E-002
  -2.2755554999999998        1.3157894999999999E-002
  -2.2711111000000002        1.3157894999999999E-002
  -2.2666666000000002        1.3157894999999999E-002
  -2.2622222000000001        1.3157894999999999E-002
  -2.2577777000000001        1.3157894999999999E-002
  -2.2533333000000000        1.3157894999999999E-002
  -2.2488888999999999        1.3157894999999999E-002
  -2.2444443999999999        1.3157894999999999E-002
  -2.2400000000000002        1.3157894999999999E-002
  -2.2355554999999998        1.3157894999999999E-002
  -2.2311111000000001        1.3157894999999999E-002
  -2.2266666000000002        1.3157894999999999E-002
  -2.2222222000000000        1.3157894999999999E-002
  -2.2177777000000001        1.3157894999999999E-002
  -2.2133332999999999        1.3157894999999999E-002
  -2.2088888999999998        1.3157894999999999E-002
  -2.2044443999999999        1.3157894999999999E-002
  -2.2000000000000002        1.3157894999999999E-002
  -2.1955555000000002        1.3157894999999999E-002
  -2.1911111000000001        1.3157894999999999E-002
  -2.1866666000000001        1.3157894999999999E-002
  -2.1822222000000000        1.3157894999999999E-002
  -2.1777777000000000        1.3157894999999999E-002
  -2.1733332999999999        1.3157894999999999E-002
  -2.1688888999999998        1.3157894999999999E-002
  -2.1644443999999998        1.3157894999999999E-002
  -2.1600000000000001        1.3157894999999999E-002
  -2.1555555000000002        1.3157894999999999E-002
  -2.1511111000000001        1.3157894999999999E-002
  -2.1466666000000001        1.3157894999999999E-002
  -2.1422222000000000        1.3157894999999999E-002
  -2.1377777000000000        1.3157894999999999E-002
  -2.1333332999999999        1.3157894999999999E-002
  -2.1288889000000002        1.3157894999999999E-002
  -2.1244443999999998        1.3157894999999999E-002
  -2.1200000000000001        1.3157894999999999E-002
  -2.1155555000000001        1.3157894999999999E-002
  -2.1111111000000000        1.3157894999999999E-002
  -2.1066666000000001        1.3157894999999999E-002
  -2.1022221999999999        1.3157894999999999E-002
  -2.0977777000000000        1.3157894999999999E-002
  -2.0933332999999998        1.3157894999999999E-002
  -2.0888889000000002        1.3157894999999999E-002
  -2.0844444000000002        1.3157894999999999E-002
  -2.0800000000000001        1.3157894999999999E-002
  -2.0755555000000001        1.3157894999999999E-002
  -2.0711111000000000        1.3157894999999999E-002
  -2.0666666000000000        1.3157894999999999E-002
  -2.0622221999999999        1.3157894999999999E-002
  -2.0577776999999999        1.3157894999999999E-002
  -2.0533332999999998        1.3157894999999999E-002
  -2.0488889000000001        1.3157894999999999E-002
  -2.0444444000000002        1.3157894999999999E-002
  -2.0400000000000000        1.3157894999999999E-002
  -2.0355555000000001        1.3157894999999999E-002
  -2.0311110999999999        1.3157894999999999E-002
  -2.0266666000000000        1.3157894999999999E-002
  -2.0222221999999999        1.3157894999999999E-002
  -2.0177776999999999        1.3157894999999999E-002
  -2.0133333000000002        1.3157894999999999E-002
  -2.0088889000000001        1.3157894999999999E-002
  -2.0044444000000001        1.3157894999999999E-002
  -2.0000000000000000        1.3157894999999999E-002
  -1.9955555000000000        1.3157894999999999E-002
  -1.9911110999999999        1.3157894999999999E-002
  -1.9866665999999999        1.3157894999999999E-002
  -1.9822222000000000        1.3157894999999999E-002
  -1.9777777000000001        1.3157894999999999E-002
  -1.9733333000000000        1.3157894999999999E-002
  -1.9688888000000000        1.3157894999999999E-002
  -1.9644444000000001        1.3157894999999999E-002
  -1.9600000000000000        1.3157894999999999E-002
  -2.4933333000000002        1.7543860000000001E-002
  -2.4888889000000001        1.7543860000000001E-002
  -2.4844444000000001        1.7543860000000001E-002
  -2.4800000000000000        1.7543860000000001E-002
  -2.4755555000000000        1.7543860000000001E-002
  -2.4711110999999999        1.7543860000000001E-002
  -2.4666665999999999        1.7543860000000001E-002
  -2.4622221999999998        1.7543860000000001E-002
  -2.4577778000000001        1.7543860000000001E-002
  -2.4533333000000002        1.7543860000000001E-002
  -2.4488889000000000        1.7543860000000001E-002
  -2.4444444000000001        1.7543860000000001E-002
  -2.4399999999999999        1.7543860000000001E-002
  -2.4355555000000000        1.7543860000000001E-002
  -2.4311110999999999        1.7543860000000001E-002
  -2.4266665999999999        1.7543860000000001E-002
  -2.4222222000000002        1.7543860000000001E-002
  -2.4177778000000001        1.7543860000000001E-002
  -2.4133333000000001        1.7543860000000001E-002
  -2.4088889000000000        1.7543860000000001E-002
  -2.4044444000000000        1.7543860000000001E-002
  -2.3999999999999999        1.7543860000000001E-002
  -2.3955554999999999        1.7543860000000001E-002
  -2.3911110999999998        1.7543860000000001E-002
  -2.3866665999999999        1.7543860000000001E-002
  -2.3822222000000002        1.7543860000000001E-002
  -2.3777778000000001        1.7543860000000001E-002
  -2.3733333000000001        1.7543860000000001E-002
  -2.3688889000000000        1.7543860000000001E-002
  -2.3644444000000000        1.7543860000000001E-002
  -2.3599999999999999        1.7543860000000001E-002
  -2.3555554999999999        1.7543860000000001E-002
  -2.3511110999999998        1.7543860000000001E-002
  -2.3466665999999998        1.7543860000000001E-002
  -2.3422222000000001        1.7543860000000001E-002
  -2.3377778000000000        1.7543860000000001E-002
  -2.3333333000000001        1.7543860000000001E-002
  -2.3288888999999999        1.7543860000000001E-002
  -2.3244444000000000        1.7543860000000001E-002
  -2.3199999999999998        1.7543860000000001E-002
  -2.3155554999999999        1.7543860000000001E-002
  -2.3111111000000002        1.7543860000000001E-002
  -2.3066665999999998        1.7543860000000001E-002
  -2.3022222000000001        1.7543860000000001E-002
  -2.2977778000000000        1.7543860000000001E-002
  -2.2933333000000000        1.7543860000000001E-002
  -2.2888888999999999        1.7543860000000001E-002
  -2.2844443999999999        1.7543860000000001E-002
  -2.2799999999999998        1.7543860000000001E-002
  -2.2755554999999998        1.7543860000000001E-002
  -2.2711111000000002        1.7543860000000001E-002
  -2.2666666000000002        1.7543860000000001E-002
  -2.2622222000000001        1.7543860000000001E-002
  -2.2577777000000001        1.7543860000000001E-002
  -2.2533333000000000        1.7543860000000001E-002
  -2.2488888999999999        1.7543860000000001E-002
  -2.2444443999999999        1.7543860000000001E-002
  -2.2400000000000002        1.7543860000000001E-002
  -2.2355554999999998        1.7543860000000001E-002
  -2.2311111000000001        1.7543860000000001E-002
  -2.2266666000000002        1.7543860000000001E-002
  -2.2222222000000000        1.7543860000000001E-002
  -2.2177777000000001        1.7543860000000001E-002
  -2.2133332999999999        1.7543860000000001E-002
  -2.2088888999999998        1.7543860000000001E-002
  -2.2044443999999999        1.7543860000000001E-002
  -2.2000000000000002        1.7543860000000001E-002
  -2.1955555000000002        1.7543860000000001E-002
  -2.1911111000000001        1.7543860000000001E-002
  -2.1866666000000001        1.7543860000000001E-002
  -2.1822222000000000        1.7543860000000001E-002
  -2.1777777000000000        1.7543860000000001E-002
  -2.1733332999999999        1.7543860000000001E-002
  -2.1688888999999998        1.7543860000000001E-002
  -2.1644443999999998        1.7543860000000001E-002
  -2.1600000000000001        1.7543860000000001E-002
  -2.1555555000000002        1.7543860000000001E-002
  -2.1511111000000001        1.7543860000000001E-002
  -2.1466666000000001        1.7543860000000001E-002
  -2.1422222000000000        1.7543860000000001E-002