 TITLE = "GRIDBLO_BC0009"
 VARIABLES = "X","Y"
ZONE I=    67,J=   127  ,DATAPACKING=POINT
 -0.99999992000000004        4.4642859139999999E-003
 -0.99561396000000002        4.4642859139999999E-003
 -0.99122798999999995        4.4642859139999999E-003
 -0.98684203000000004        4.4642859139999999E-003
 -0.98245605999999996        4.4642859139999999E-003
 -0.97807010000000005        4.4642859139999999E-003
 -0.97368412999999998        4.4642859139999999E-003
 -0.96929816999999996        4.4642859139999999E-003
 -0.96491221000000005        4.4642859139999999E-003
 -0.96052623999999998        4.4642859139999999E-003
 -0.95614027999999995        4.4642859139999999E-003
 -0.95175430999999999        4.4642859139999999E-003
 -0.94736834999999997        4.4642859139999999E-003
 -0.94298238000000001        4.4642859139999999E-003
 -0.93859641999999999        4.4642859139999999E-003
 -0.93421045000000003        4.4642859139999999E-003
 -0.92982449000000000        4.4642859139999999E-003
 -0.92543852000000004        4.4642859139999999E-003
 -0.92105256000000002        4.4642859139999999E-003
 -0.91666658999999995        4.4642859139999999E-003
 -0.91228063000000004        4.4642859139999999E-003
 -0.90789465999999996        4.4642859139999999E-003
 -0.90350870000000005        4.4642859139999999E-003
 -0.89912272999999998        4.4642859139999999E-003
 -0.89473676999999996        4.4642859139999999E-003
 -0.89035080000000000        4.4642859139999999E-003
 -0.88596483999999998        4.4642859139999999E-003
 -0.88157887000000001        4.4642859139999999E-003
 -0.87719290999999999        4.4642859139999999E-003
 -0.87280694999999997        4.4642859139999999E-003
 -0.86842098000000001        4.4642859139999999E-003
 -0.86403501999999999        4.4642859139999999E-003
 -0.85964905000000003        4.4642859139999999E-003
 -0.85526309000000000        4.4642859139999999E-003
 -0.85087712000000004        4.4642859139999999E-003
 -0.84649116000000002        4.4642859139999999E-003
 -0.84210518999999995        4.4642859139999999E-003
 -0.83771923000000004        4.4642859139999999E-003
 -0.83333325999999996        4.4642859139999999E-003
 -0.82894730000000005        4.4642859139999999E-003
 -0.82456132999999998        4.4642859139999999E-003
 -0.82017536999999996        4.4642859139999999E-003
 -0.81578940000000000        4.4642859139999999E-003
 -0.81140343999999998        4.4642859139999999E-003
 -0.80701747000000001        4.4642859139999999E-003
 -0.80263150999999999        4.4642859139999999E-003
 -0.79824554000000003        4.4642859139999999E-003
 -0.79385958000000001        4.4642859139999999E-003
 -0.78947361000000005        4.4642859139999999E-003
 -0.78508765000000003        4.4642859139999999E-003
 -0.78070169000000000        4.4642859139999999E-003
 -0.77631572000000004        4.4642859139999999E-003
 -0.77192976000000002        4.4642859139999999E-003
 -0.76754378999999995        4.4642859139999999E-003
 -0.76315783000000004        4.4642859139999999E-003
 -0.75877185999999996        4.4642859139999999E-003
 -0.75438590000000005        4.4642859139999999E-003
 -0.74999992999999998        4.4642859139999999E-003
 -0.74561396999999996        4.4642859139999999E-003
 -0.74122800000000000        4.4642859139999999E-003
 -0.73684203999999998        4.4642859139999999E-003
 -0.73245607000000001        4.4642859139999999E-003
 -0.72807010999999999        4.4642859139999999E-003
 -0.72368414000000003        4.4642859139999999E-003
 -0.71929818000000001        4.4642859139999999E-003
 -0.71491221000000005        4.4642859139999999E-003
 -0.71052625000000003        4.4642859139999999E-003
 -0.99999992000000004        4.3859650000000003E-003
 -0.99561396000000002        4.3859650000000003E-003
 -0.99122798999999995        4.3859650000000003E-003
 -0.98684203000000004        4.3859650000000003E-003
 -0.98245605999999996        4.3859650000000003E-003
 -0.97807010000000005        4.3859650000000003E-003
 -0.97368412999999998        4.3859650000000003E-003
 -0.96929816999999996        4.3859650000000003E-003
 -0.96491221000000005        4.3859650000000003E-003
 -0.96052623999999998        4.3859650000000003E-003
 -0.95614027999999995        4.3859650000000003E-003
 -0.95175430999999999        4.3859650000000003E-003
 -0.94736834999999997        4.3859650000000003E-003
 -0.94298238000000001        4.3859650000000003E-003
 -0.93859641999999999        4.3859650000000003E-003
 -0.93421045000000003        4.3859650000000003E-003
 -0.92982449000000000        4.3859650000000003E-003
 -0.92543852000000004        4.3859650000000003E-003
 -0.92105256000000002        4.3859650000000003E-003
 -0.91666658999999995        4.3859650000000003E-003
 -0.91228063000000004        4.3859650000000003E-003
 -0.90789465999999996        4.3859650000000003E-003
 -0.90350870000000005        4.3859650000000003E-003
 -0.89912272999999998        4.3859650000000003E-003
 -0.89473676999999996        4.3859650000000003E-003
 -0.89035080000000000        4.3859650000000003E-003
 -0.88596483999999998        4.3859650000000003E-003
 -0.88157887000000001        4.3859650000000003E-003
 -0.87719290999999999        4.3859650000000003E-003
 -0.87280694999999997        4.3859650000000003E-003
 -0.86842098000000001        4.3859650000000003E-003
 -0.86403501999999999        4.3859650000000003E-003
 -0.85964905000000003        4.3859650000000003E-003
 -0.85526309000000000        4.3859650000000003E-003
 -0.85087712000000004        4.3859650000000003E-003
 -0.84649116000000002        4.3859650000000003E-003
 -0.84210518999999995        4.3859650000000003E-003
 -0.83771923000000004        4.3859650000000003E-003
 -0.83333325999999996        4.3859650000000003E-003
 -0.82894730000000005        4.3859650000000003E-003
 -0.82456132999999998        4.3859650000000003E-003
 -0.82017536999999996        4.3859650000000003E-003
 -0.81578940000000000        4.3859650000000003E-003
 -0.81140343999999998        4.3859650000000003E-003
 -0.80701747000000001        4.3859650000000003E-003
 -0.80263150999999999        4.3859650000000003E-003
 -0.79824554000000003        4.3859650000000003E-003
 -0.79385958000000001        4.3859650000000003E-003
 -0.78947361000000005        4.3859650000000003E-003
 -0.78508765000000003        4.3859650000000003E-003
 -0.78070169000000000        4.3859650000000003E-003
 -0.77631572000000004        4.3859650000000003E-003
 -0.77192976000000002        4.3859650000000003E-003
 -0.76754378999999995        4.3859650000000003E-003
 -0.76315783000000004        4.3859650000000003E-003
 -0.75877185999999996        4.3859650000000003E-003
 -0.75438590000000005        4.3859650000000003E-003
 -0.74999992999999998        4.3859650000000003E-003
 -0.74561396999999996        4.3859650000000003E-003
 -0.74122800000000000        4.3859650000000003E-003
 -0.73684203999999998        4.3859650000000003E-003
 -0.73245607000000001        4.3859650000000003E-003
 -0.72807010999999999        4.3859650000000003E-003
 -0.72368414000000003        4.3859650000000003E-003
 -0.71929818000000001        4.3859650000000003E-003
 -0.71491221000000005        4.3859650000000003E-003
 -0.71052625000000003        4.3859650000000003E-003
 -0.99999992000000004        8.7719301000000003E-003
 -0.99561396000000002        8.7719301000000003E-003
 -0.99122798999999995        8.7719301000000003E-003
 -0.98684203000000004        8.7719301000000003E-003
 -0.98245605999999996        8.7719301000000003E-003
 -0.97807010000000005        8.7719301000000003E-003
 -0.97368412999999998        8.7719301000000003E-003
 -0.96929816999999996        8.7719301000000003E-003
 -0.96491221000000005        8.7719301000000003E-003
 -0.96052623999999998        8.7719301000000003E-003
 -0.95614027999999995        8.7719301000000003E-003
 -0.95175430999999999        8.7719301000000003E-003
 -0.94736834999999997        8.7719301000000003E-003
 -0.94298238000000001        8.7719301000000003E-003
 -0.93859641999999999        8.7719301000000003E-003
 -0.93421045000000003        8.7719301000000003E-003
 -0.92982449000000000        8.7719301000000003E-003
 -0.92543852000000004        8.7719301000000003E-003
 -0.92105256000000002        8.7719301000000003E-003
 -0.91666658999999995        8.7719301000000003E-003
 -0.91228063000000004        8.7719301000000003E-003
 -0.90789465999999996        8.7719301000000003E-003
 -0.90350870000000005        8.7719301000000003E-003
 -0.89912272999999998        8.7719301000000003E-003
 -0.89473676999999996        8.7719301000000003E-003
 -0.89035080000000000        8.7719301000000003E-003
 -0.88596483999999998        8.7719301000000003E-003
 -0.88157887000000001        8.7719301000000003E-003
 -0.87719290999999999        8.7719301000000003E-003
 -0.87280694999999997        8.7719301000000003E-003
 -0.86842098000000001        8.7719301000000003E-003
 -0.86403501999999999        8.7719301000000003E-003
 -0.85964905000000003        8.7719301000000003E-003
 -0.85526309000000000        8.7719301000000003E-003
 -0.85087712000000004        8.7719301000000003E-003
 -0.84649116000000002        8.7719301000000003E-003
 -0.84210518999999995        8.7719301000000003E-003
 -0.83771923000000004        8.7719301000000003E-003
 -0.83333325999999996        8.7719301000000003E-003
 -0.82894730000000005        8.7719301000000003E-003
 -0.82456132999999998        8.7719301000000003E-003
 -0.82017536999999996        8.7719301000000003E-003
 -0.81578940000000000        8.7719301000000003E-003
 -0.81140343999999998        8.7719301000000003E-003
 -0.80701747000000001        8.7719301000000003E-003
 -0.80263150999999999        8.7719301000000003E-003
 -0.79824554000000003        8.7719301000000003E-003
 -0.79385958000000001        8.7719301000000003E-003
 -0.78947361000000005        8.7719301000000003E-003
 -0.78508765000000003        8.7719301000000003E-003
 -0.78070169000000000        8.7719301000000003E-003
 -0.77631572000000004        8.7719301000000003E-003
 -0.77192976000000002        8.7719301000000003E-003
 -0.76754378999999995        8.7719301000000003E-003
 -0.76315783000000004        8.7719301000000003E-003
 -0.75877185999999996        8.7719301000000003E-003
 -0.75438590000000005        8.7719301000000003E-003
 -0.74999992999999998        8.7719301000000003E-003
 -0.74561396999999996        8.7719301000000003E-003
 -0.74122800000000000        8.7719301000000003E-003
 -0.73684203999999998        8.7719301000000003E-003
 -0.73245607000000001        8.7719301000000003E-003
 -0.72807010999999999        8.7719301000000003E-003
 -0.72368414000000003        8.7719301000000003E-003
 -0.71929818000000001        8.7719301000000003E-003
 -0.71491221000000005        8.7719301000000003E-003
 -0.71052625000000003        8.7719301000000003E-003
 -0.99999992000000004        1.3157894999999999E-002
 -0.99561396000000002        1.3157894999999999E-002
 -0.99122798999999995        1.3157894999999999E-002
 -0.98684203000000004        1.3157894999999999E-002
 -0.98245605999999996        1.3157894999999999E-002
 -0.97807010000000005        1.3157894999999999E-002
 -0.97368412999999998        1.3157894999999999E-002
 -0.96929816999999996        1.3157894999999999E-002
 -0.96491221000000005        1.3157894999999999E-002
 -0.96052623999999998        1.3157894999999999E-002
 -0.95614027999999995        1.3157894999999999E-002
 -0.95175430999999999        1.3157894999999999E-002
 -0.94736834999999997        1.3157894999999999E-002
 -0.94298238000000001        1.3157894999999999E-002
 -0.93859641999999999        1.3157894999999999E-002
 -0.93421045000000003        1.3157894999999999E-002
 -0.92982449000000000        1.3157894999999999E-002
 -0.92543852000000004        1.3157894999999999E-002
 -0.92105256000000002        1.3157894999999999E-002
 -0.91666658999999995        1.3157894999999999E-002
 -0.91228063000000004        1.3157894999999999E-002
 -0.90789465999999996        1.3157894999999999E-002
 -0.90350870000000005        1.3157894999999999E-002
 -0.89912272999999998        1.3157894999999999E-002
 -0.89473676999999996        1.3157894999999999E-002
 -0.89035080000000000        1.3157894999999999E-002
 -0.88596483999999998        1.3157894999999999E-002
 -0.88157887000000001        1.3157894999999999E-002
 -0.87719290999999999        1.3157894999999999E-002
 -0.87280694999999997        1.3157894999999999E-002
 -0.86842098000000001        1.3157894999999999E-002
 -0.86403501999999999        1.3157894999999999E-002
 -0.85964905000000003        1.3157894999999999E-002
 -0.85526309000000000        1.3157894999999999E-002
 -0.85087712000000004        1.3157894999999999E-002
 -0.84649116000000002        1.3157894999999999E-002
 -0.84210518999999995        1.3157894999999999E-002
 -0.83771923000000004        1.3157894999999999E-002
 -0.83333325999999996        1.3157894999999999E-002
 -0.82894730000000005        1.3157894999999999E-002
 -0.82456132999999998        1.3157894999999999E-002
 -0.82017536999999996        1.3157894999999999E-002
 -0.81578940000000000        1.3157894999999999E-002
 -0.81140343999999998        1.3157894999999999E-002
 -0.80701747000000001        1.3157894999999999E-002
 -0.80263150999999999        1.3157894999999999E-002
 -0.79824554000000003        1.3157894999999999E-002
 -0.79385958000000001        1.3157894999999999E-002
 -0.78947361000000005        1.3157894999999999E-002
 -0.78508765000000003        1.3157894999999999E-002
 -0.78070169000000000        1.3157894999999999E-002
 -0.77631572000000004        1.3157894999999999E-002
 -0.77192976000000002        1.3157894999999999E-002
 -0.76754378999999995        1.3157894999999999E-002
 -0.76315783000000004        1.3157894999999999E-002
 -0.75877185999999996        1.3157894999999999E-002
 -0.75438590000000005        1.3157894999999999E-002
 -0.74999992999999998        1.3157894999999999E-002
 -0.74561396999999996        1.3157894999999999E-002
 -0.74122800000000000        1.3157894999999999E-002
 -0.73684203999999998        1.3157894999999999E-002
 -0.73245607000000001        1.3157894999999999E-002
 -0.72807010999999999        1.3157894999999999E-002
 -0.72368414000000003        1.3157894999999999E-002
 -0.71929818000000001        1.3157894999999999E-002
 -0.71491221000000005        1.3157894999999999E-002
 -0.71052625000000003        1.3157894999999999E-002
 -0.99999992000000004        1.7543860000000001E-002
 -0.99561396000000002        1.7543860000000001E-002
 -0.99122798999999995        1.7543860000000001E-002
 -0.98684203000000004        1.7543860000000001E-002
 -0.98245605999999996        1.7543860000000001E-002
 -0.97807010000000005        1.7543860000000001E-002
 -0.97368412999999998        1.7543860000000001E-002
 -0.96929816999999996        1.7543860000000001E-002
 -0.96491221000000005        1.7543860000000001E-002
 -0.96052623999999998        1.7543860000000001E-002
 -0.95614027999999995        1.7543860000000001E-002
 -0.95175430999999999        1.7543860000000001E-002
 -0.94736834999999997        1.7543860000000001E-002
 -0.94298238000000001        1.7543860000000001E-002
 -0.93859641999999999        1.7543860000000001E-002
 -0.93421045000000003        1.7543860000000001E-002
 -0.92982449000000000        1.7543860000000001E-002
 -0.92543852000000004        1.7543860000000001E-002
 -0.92105256000000002        1.7543860000000001E-002
 -0.91666658999999995        1.7543860000000001E-002
 -0.91228063000000004        1.7543860000000001E-002
 -0.90789465999999996        1.7543860000000001E-002
 -0.90350870000000005        1.7543860000000001E-002
 -0.89912272999999998        1.7543860000000001E-002
 -0.89473676999999996        1.7543860000000001E-002
 -0.89035080000000000        1.7543860000000001E-002
 -0.88596483999999998        1.7543860000000001E-002
 -0.88157887000000001        1.7543860000000001E-002
 -0.87719290999999999        1.7543860000000001E-002
 -0.87280694999999997        1.7543860000000001E-002
 -0.86842098000000001        1.7543860000000001E-002
 -0.86403501999999999        1.7543860000000001E-002
 -0.85964905000000003        1.7543860000000001E-002
 -0.85526309000000000        1.7543860000000001E-002
 -0.85087712000000004        1.7543860000000001E-002
 -0.84649116000000002        1.7543860000000001E-002
 -0.84210518999999995        1.7543860000000001E-002
 -0.83771923000000004        1.7543860000000001E-002
 -0.83333325999999996        1.7543860000000001E-002
 -0.82894730000000005        1.7543860000000001E-002
 -0.82456132999999998        1.7543860000000001E-002
 -0.82017536999999996        1.7543860000000001E-002
 -0.81578940000000000        1.7543860000000001E-002
 -0.81140343999999998        1.7543860000000001E-002
 -0.80701747000000001        1.7543860000000001E-002
 -0.80263150999999999        1.7543860000000001E-002
 -0.79824554000000003        1.7543860000000001E-002
 -0.79385958000000001        1.7543860000000001E-002
 -0.78947361000000005        1.7543860000000001E-002
 -0.78508765000000003        1.7543860000000001E-002
 -0.78070169000000000        1.7543860000000001E-002
 -0.77631572000000004        1.7543860000000001E-002
 -0.77192976000000002        1.7543860000000001E-002
 -0.76754378999999995        1.7543860000000001E-002
 -0.76315783000000004        1.7543860000000001E-002
 -0.75877185999999996        1.7543860000000001E-002
 -0.75438590000000005        1.7543860000000001E-002
 -0.74999992999999998        1.7543860000000001E-002
 -0.74561396999999996        1.7543860000000001E-002
 -0.74122800000000000        1.7543860000000001E-002
 -0.73684203999999998        1.7543860000000001E-002
 -0.73245607000000001        1.7543860000000001E-002
 -0.72807010999999999        1.7543860000000001E-002
 -0.72368414000000003        1.7543860000000001E-002
 -0.71929818000000001        1.7543860000000001E-002
 -0.71491221000000005        1.7543860000000001E-002
 -0.71052625000000003        1.7543860000000001E-002
 -0.99999992000000004        2.1929825000000000E-002
 -0.99561396000000002        2.1929825000000000E-002
 -0.99122798999999995        2.1929825000000000E-002
 -0.98684203000000004        2.1929825000000000E-002
 -0.98245605999999996        2.1929825000000000E-002
 -0.97807010000000005        2.1929825000000000E-002
 -0.97368412999999998        2.1929825000000000E-002
 -0.96929816999999996        2.1929825000000000E-002
 -0.96491221000000005        2.1929825000000000E-002
 -0.96052623999999998        2.1929825000000000E-002
 -0.95614027999999995        2.1929825000000000E-002
 -0.95175430999999999        2.1929825000000000E-002
 -0.94736834999999997        2.1929825000000000E-002
 -0.94298238000000001        2.1929825000000000E-002
 -0.93859641999999999        2.1929825000000000E-002
 -0.93421045000000003        2.1929825000000000E-002
 -0.92982449000000000        2.1929825000000000E-002
 -0.92543852000000004        2.1929825000000000E-002
 -0.92105256000000002        2.1929825000000000E-002
 -0.91666658999999995        2.1929825000000000E-002
 -0.91228063000000004        2.1929825000000000E-002
 -0.90789465999999996        2.1929825000000000E-002
 -0.90350870000000005        2.1929825000000000E-002
 -0.89912272999999998        2.1929825000000000E-002
 -0.89473676999999996        2.1929825000000000E-002
 -0.89035080000000000        2.1929825000000000E-002
 -0.88596483999999998        2.1929825000000000E-002
 -0.88157887000000001        2.1929825000000000E-002
 -0.87719290999999999        2.1929825000000000E-002
 -0.87280694999999997        2.1929825000000000E-002
 -0.86842098000000001        2.1929825000000000E-002
 -0.86403501999999999        2.1929825000000000E-002
 -0.85964905000000003        2.1929825000000000E-002
 -0.85526309000000000        2.1929825000000000E-002
 -0.85087712000000004        2.1929825000000000E-002
 -0.84649116000000002        2.1929825000000000E-002
 -0.84210518999999995        2.1929825000000000E-002
 -0.83771923000000004        2.1929825000000000E-002
 -0.83333325999999996        2.1929825000000000E-002
 -0.82894730000000005        2.1929825000000000E-002
 -0.82456132999999998        2.1929825000000000E-002
 -0.82017536999999996        2.1929825000000000E-002
 -0.81578940000000000        2.1929825000000000E-002
 -0.81140343999999998        2.1929825000000000E-002
 -0.80701747000000001        2.1929825000000000E-002
 -0.80263150999999999        2.1929825000000000E-002
 -0.79824554000000003        2.1929825000000000E-002
 -0.79385958000000001        2.1929825000000000E-002
 -0.78947361000000005        2.1929825000000000E-002
 -0.78508765000000003        2.1929825000000000E-002
 -0.78070169000000000        2.1929825000000000E-002
 -0.77631572000000004        2.1929825000000000E-002
 -0.77192976000000002        2.1929825000000000E-002
 -0.76754378999999995        2.1929825000000000E-002
 -0.76315783000000004        2.1929825000000000E-002
 -0.75877185999999996        2.1929825000000000E-002
 -0.75438590000000005        2.1929825000000000E-002
 -0.74999992999999998        2.1929825000000000E-002
 -0.74561396999999996        2.1929825000000000E-002
 -0.74122800000000000        2.1929825000000000E-002
 -0.73684203999999998        2.1929825000000000E-002
 -0.73245607000000001        2.1929825000000000E-002
 -0.72807010999999999        2.1929825000000000E-002
 -0.72368414000000003        2.1929825000000000E-002
 -0.71929818000000001        2.1929825000000000E-002
 -0.71491221000000005        2.1929825000000000E-002
 -0.71052625000000003        2.1929825000000000E-002
 -0.99999992000000004        2.6315789999999999E-002
 -0.99561396000000002        2.6315789999999999E-002
 -0.99122798999999995        2.6315789999999999E-002
 -0.98684203000000004        2.6315789999999999E-002
 -0.98245605999999996        2.6315789999999999E-002
 -0.97807010000000005        2.6315789999999999E-002
 -0.97368412999999998        2.6315789999999999E-002
 -0.96929816999999996        2.6315789999999999E-002
 -0.96491221000000005        2.6315789999999999E-002
 -0.96052623999999998        2.6315789999999999E-002
 -0.95614027999999995        2.6315789999999999E-002
 -0.95175430999999999        2.6315789999999999E-002
 -0.94736834999999997        2.6315789999999999E-002
 -0.94298238000000001        2.6315789999999999E-002
 -0.93859641999999999        2.6315789999999999E-002
 -0.93421045000000003        2.6315789999999999E-002
 -0.92982449000000000        2.6315789999999999E-002
 -0.92543852000000004        2.6315789999999999E-002
 -0.92105256000000002        2.6315789999999999E-002
 -0.91666658999999995        2.6315789999999999E-002
 -0.91228063000000004        2.6315789999999999E-002
 -0.90789465999999996        2.6315789999999999E-002
 -0.90350870000000005        2.6315789999999999E-002
 -0.89912272999999998        2.6315789999999999E-002
 -0.89473676999999996        2.6315789999999999E-002
 -0.89035080000000000        2.6315789999999999E-002
 -0.88596483999999998        2.6315789999999999E-002
 -0.88157887000000001        2.6315789999999999E-002
 -0.87719290999999999        2.6315789999999999E-002
 -0.87280694999999997        2.6315789999999999E-002
 -0.86842098000000001        2.6315789999999999E-002
 -0.86403501999999999        2.6315789999999999E-002
 -0.85964905000000003        2.6315789999999999E-002
 -0.85526309000000000        2.6315789999999999E-002
 -0.85087712000000004        2.6315789999999999E-002
 -0.84649116000000002        2.6315789999999999E-002
 -0.84210518999999995        2.6315789999999999E-002
 -0.83771923000000004        2.6315789999999999E-002
 -0.83333325999999996        2.6315789999999999E-002
 -0.82894730000000005        2.6315789999999999E-002
 -0.82456132999999998        2.6315789999999999E-002
 -0.82017536999999996        2.6315789999999999E-002
 -0.81578940000000000        2.6315789999999999E-002
 -0.81140343999999998        2.6315789999999999E-002
 -0.80701747000000001        2.6315789999999999E-002
 -0.80263150999999999        2.6315789999999999E-002
 -0.79824554000000003        2.6315789999999999E-002
 -0.79385958000000001        2.6315789999999999E-002
 -0.78947361000000005        2.6315789999999999E-002
 -0.78508765000000003        2.6315789999999999E-002
 -0.78070169000000000        2.6315789999999999E-002
 -0.77631572000000004        2.6315789999999999E-002
 -0.77192976000000002        2.6315789999999999E-002
 -0.76754378999999995        2.6315789999999999E-002
 -0.76315783000000004        2.6315789999999999E-002
 -0.75877185999999996        2.6315789999999999E-002
 -0.75438590000000005        2.6315789999999999E-002
 -0.74999992999999998        2.6315789999999999E-002
 -0.74561396999999996        2.6315789999999999E-002
 -0.74122800000000000        2.6315789999999999E-002
 -0.73684203999999998        2.6315789999999999E-002
 -0.73245607000000001        2.6315789999999999E-002
 -0.72807010999999999        2.6315789999999999E-002
 -0.72368414000000003        2.6315789999999999E-002
 -0.71929818000000001        2.6315789999999999E-002
 -0.71491221000000005        2.6315789999999999E-002
 -0.71052625000000003        2.6315789999999999E-002
 -0.99999992000000004        3.0701755000000001E-002
 -0.99561396000000002        3.0701755000000001E-002
 -0.99122798999999995        3.0701755000000001E-002
 -0.98684203000000004        3.0701755000000001E-002
 -0.98245605999999996        3.0701755000000001E-002
 -0.97807010000000005        3.0701755000000001E-002
 -0.97368412999999998        3.0701755000000001E-002
 -0.96929816999999996        3.0701755000000001E-002
 -0.96491221000000005        3.0701755000000001E-002
 -0.96052623999999998        3.0701755000000001E-002
 -0.95614027999999995        3.0701755000000001E-002
 -0.95175430999999999        3.0701755000000001E-002
 -0.94736834999999997        3.0701755000000001E-002
 -0.94298238000000001        3.0701755000000001E-002
 -0.93859641999999999        3.0701755000000001E-002
 -0.93421045000000003        3.0701755000000001E-002
 -0.92982449000000000        3.0701755000000001E-002
 -0.92543852000000004        3.0701755000000001E-002
 -0.92105256000000002        3.0701755000000001E-002
 -0.91666658999999995        3.0701755000000001E-002
 -0.91228063000000004        3.0701755000000001E-002
 -0.90789465999999996        3.0701755000000001E-002
 -0.90350870000000005        3.0701755000000001E-002
 -0.89912272999999998        3.0701755000000001E-002
 -0.89473676999999996        3.0701755000000001E-002
 -0.89035080000000000        3.0701755000000001E-002
 -0.88596483999999998        3.0701755000000001E-002
 -0.88157887000000001        3.0701755000000001E-002
 -0.87719290999999999        3.0701755000000001E-002
 -0.87280694999999997        3.0701755000000001E-002
 -0.86842098000000001        3.0701755000000001E-002
 -0.86403501999999999        3.0701755000000001E-002
 -0.85964905000000003        3.0701755000000001E-002
 -0.85526309000000000        3.0701755000000001E-002
 -0.85087712000000004        3.0701755000000001E-002
 -0.84649116000000002        3.0701755000000001E-002
 -0.84210518999999995        3.0701755000000001E-002
 -0.83771923000000004        3.0701755000000001E-002
 -0.83333325999999996        3.0701755000000001E-002
 -0.82894730000000005        3.0701755000000001E-002
 -0.82456132999999998        3.0701755000000001E-002
 -0.82017536999999996        3.0701755000000001E-002
 -0.81578940000000000        3.0701755000000001E-002
 -0.81140343999999998        3.0701755000000001E-002
 -0.80701747000000001        3.0701755000000001E-002
 -0.80263150999999999        3.0701755000000001E-002
 -0.79824554000000003        3.0701755000000001E-002
 -0.79385958000000001        3.0701755000000001E-002
 -0.78947361000000005        3.0701755000000001E-002
 -0.78508765000000003        3.0701755000000001E-002
 -0.78070169000000000        3.0701755000000001E-002
 -0.77631572000000004        3.0701755000000001E-002
 -0.77192976000000002        3.0701755000000001E-002
 -0.76754378999999995        3.0701755000000001E-002
 -0.76315783000000004        3.0701755000000001E-002
 -0.75877185999999996        3.0701755000000001E-002
 -0.75438590000000005        3.0701755000000001E-002
 -0.74999992999999998        3.0701755000000001E-002
 -0.74561396999999996        3.0701755000000001E-002
 -0.74122800000000000        3.0701755000000001E-002
 -0.73684203999999998        3.0701755000000001E-002
 -0.73245607000000001        3.0701755000000001E-002
 -0.72807010999999999        3.0701755000000001E-002
 -0.72368414000000003        3.0701755000000001E-002
 -0.71929818000000001        3.0701755000000001E-002
 -0.71491221000000005        3.0701755000000001E-002
 -0.71052625000000003        3.0701755000000001E-002
 -0.99999992000000004        3.5087720000000003E-002
 -0.99561396000000002        3.5087720000000003E-002
 -0.99122798999999995        3.5087720000000003E-002
 -0.98684203000000004        3.5087720000000003E-002
 -0.98245605999999996        3.5087720000000003E-002
 -0.97807010000000005        3.5087720000000003E-002
 -0.97368412999999998        3.5087720000000003E-002
 -0.96929816999999996        3.5087720000000003E-002
 -0.96491221000000005        3.5087720000000003E-002
 -0.96052623999999998        3.5087720000000003E-002
 -0.95614027999999995        3.5087720000000003E-002
 -0.95175430999999999        3.5087720000000003E-002
 -0.94736834999999997        3.5087720000000003E-002
 -0.94298238000000001        3.5087720000000003E-002
 -0.93859641999999999        3.5087720000000003E-002
 -0.93421045000000003        3.5087720000000003E-002
 -0.92982449000000000        3.5087720000000003E-002
 -0.92543852000000004        3.5087720000000003E-002
 -0.92105256000000002        3.5087720000000003E-002
 -0.91666658999999995        3.5087720000000003E-002
 -0.91228063000000004        3.5087720000000003E-002
 -0.90789465999999996        3.5087720000000003E-002
 -0.90350870000000005        3.5087720000000003E-002
 -0.89912272999999998        3.5087720000000003E-002
 -0.89473676999999996        3.5087720000000003E-002
 -0.89035080000000000        3.5087720000000003E-002
 -0.88596483999999998        3.5087720000000003E-002
 -0.88157887000000001        3.5087720000000003E-002