 TITLE = "GRIDBLO_BC0016"
 VARIABLES = "X","Y"
ZONE I=   147,J=   127  ,DATAPACKING=POINT
   2.0400699000000002       0.50000001000000005     
   2.0474258000000001       0.50000001000000005     
   2.0547704000000002       0.50000001000000005     
   2.0621035999999999       0.50000001000000005     
   2.0694254999999999       0.50000001000000005     
   2.0767359999999999       0.50000001000000005     
   2.0840352000000002       0.50000001000000005     
   2.0913232000000002       0.50000001000000005     
   2.0985998000000001       0.50000001000000005     
   2.1058652000000002       0.50000001000000005     
   2.1131193000000001       0.50000001000000005     
   2.1203620999999999       0.50000001000000005     
   2.1275938000000001       0.50000001000000005     
   2.1348142000000001       0.50000001000000005     
   2.1420233999999998       0.50000001000000005     
   2.1492214000000001       0.50000001000000005     
   2.1564082000000000       0.50000001000000005     
   2.1635838000000001       0.50000001000000005     
   2.1707483000000001       0.50000001000000005     
   2.1779016000000002       0.50000001000000005     
   2.1850437999999999       0.50000001000000005     
   2.1921748999999999       0.50000001000000005     
   2.1992948000000001       0.50000001000000005     
   2.2064037000000001       0.50000001000000005     
   2.2135014000000002       0.50000001000000005     
   2.2205881000000001       0.50000001000000005     
   2.2276638000000002       0.50000001000000005     
   2.2347283999999998       0.50000001000000005     
   2.2417818999999999       0.50000001000000005     
   2.2488244000000002       0.50000001000000005     
   2.2558560000000001       0.50000001000000005     
   2.2628765000000000       0.50000001000000005     
   2.2698860000000001       0.50000001000000005     
   2.2768845999999998       0.50000001000000005     
   2.2838721999999998       0.50000001000000005     
   2.2908488000000000       0.50000001000000005     
   2.2978144999999999       0.50000001000000005     
   2.3047692999999998       0.50000001000000005     
   2.3117131999999998       0.50000001000000005     
   2.3186461000000000       0.50000001000000005     
   2.3255682000000002       0.50000001000000005     
   2.3324794000000000       0.50000001000000005     
   2.3393798000000001       0.50000001000000005     
   2.3462692999999999       0.50000001000000005     
   2.3531479000000002       0.50000001000000005     
   2.3600156999999999       0.50000001000000005     
   2.3668727999999999       0.50000001000000005     
   2.3737189999999999       0.50000001000000005     
   2.3805543999999998       0.50000001000000005     
   2.3873790000000001       0.50000001000000005     
   2.3941929000000002       0.50000001000000005     
   2.4009960000000001       0.50000001000000005     
   2.4077883999999998       0.50000001000000005     
   2.4145699999999999       0.50000001000000005     
   2.4213410000000000       0.50000001000000005     
   2.4281012000000000       0.50000001000000005     
   2.4348507000000001       0.50000001000000005     
   2.4415895999999999       0.50000001000000005     
   2.4483177999999999       0.50000001000000005     
   2.4550353000000000       0.50000001000000005     
   2.4617422000000002       0.50000001000000005     
   2.4684384000000001       0.50000001000000005     
   2.4751240000000001       0.50000001000000005     
   2.4817990000000001       0.50000001000000005     
   2.4884634999999999       0.50000001000000005     
   2.4951173000000000       0.50000001000000005     
   2.5017605000000001       0.50000001000000005     
   2.5083932000000000       0.50000001000000005     
   2.5150153999999998       0.50000001000000005     
   2.5216270000000001       0.50000001000000005     
   2.5282281000000002       0.50000001000000005     
   2.5348185999999999       0.50000001000000005     
   2.5413986999999998       0.50000001000000005     
   2.5479683000000000       0.50000001000000005     
   2.5545274000000000       0.50000001000000005     
   2.5610759999999999       0.50000001000000005     
   2.5676142000000000       0.50000001000000005     
   2.5741418999999999       0.50000001000000005     
   2.5806591999999999       0.50000001000000005     
   2.5871661000000001       0.50000001000000005     
   2.5936626000000000       0.50000001000000005     
   2.6001487000000001       0.50000001000000005     
   2.6066243999999998       0.50000001000000005     
   2.6130897000000002       0.50000001000000005     
   2.6195447000000001       0.50000001000000005     
   2.6259893000000001       0.50000001000000005     
   2.6324234999999998       0.50000001000000005     
   2.6388474999999998       0.50000001000000005     
   2.6452610999999999       0.50000001000000005     
   2.6516644999999999       0.50000001000000005     
   2.6580575000000000       0.50000001000000005     
   2.6644402999999999       0.50000001000000005     
   2.6708128000000002       0.50000001000000005     
   2.6771750000000001       0.50000001000000005     
   2.6835271000000001       0.50000001000000005     
   2.6898688000000002       0.50000001000000005     
   2.6962003999999999       0.50000001000000005     
   2.7025217000000001       0.50000001000000005     
   2.7088329000000000       0.50000001000000005     
   2.7151337999999998       0.50000001000000005     
   2.7214246000000002       0.50000001000000005     
   2.7277051999999999       0.50000001000000005     
   2.7339756999999998       0.50000001000000005     
   2.7402359999999999       0.50000001000000005     
   2.7464862000000001       0.50000001000000005     
   2.7527263000000000       0.50000001000000005     
   2.7589562999999999       0.50000001000000005     
   2.7651762000000000       0.50000001000000005     
   2.7713860000000001       0.50000001000000005     
   2.7775856999999999       0.50000001000000005     
   2.7837754000000001       0.50000001000000005     
   2.7899550999999998       0.50000001000000005     
   2.7961247000000000       0.50000001000000005     
   2.8022841999999999       0.50000001000000005     
   2.8084338000000000       0.50000001000000005     
   2.8145733000000002       0.50000001000000005     
   2.8207029000000001       0.50000001000000005     
   2.8268225000000000       0.50000001000000005     
   2.8329320999999998       0.50000001000000005     
   2.8390317000000000       0.50000001000000005     
   2.8451214999999999       0.50000001000000005     
   2.8512012000000002       0.50000001000000005     
   2.8572711000000002       0.50000001000000005     
   2.8633310000000001       0.50000001000000005     
   2.8693811000000000       0.50000001000000005     
   2.8754211999999999       0.50000001000000005     
   2.8814514999999998       0.50000001000000005     
   2.8874719000000000       0.50000001000000005     
   2.8934825000000002       0.50000001000000005     
   2.8994832000000001       0.50000001000000005     
   2.9054741000000002       0.50000001000000005     
   2.9114551000000000       0.50000001000000005     
   2.9174264000000001       0.50000001000000005     
   2.9233878000000000       0.50000001000000005     
   2.9293395000000002       0.50000001000000005     
   2.9352814000000000       0.50000001000000005     
   2.9412134999999999       0.50000001000000005     
   2.9471359000000001       0.50000001000000005     
   2.9530485000000000       0.50000001000000005     
   2.9589514000000001       0.50000001000000005     
   2.9648444999999999       0.50000001000000005     
   2.9707279999999998       0.50000001000000005     
   2.9766016999999998       0.50000001000000005     
   2.9824657999999999       0.50000001000000005     
   2.9883202000000000       0.50000001000000005     
   2.9941648999999999       0.50000001000000005     
   3.0000000000000000       0.50000001000000005     
   2.0400699000000002       0.50438598000000001     
   2.0474258000000001       0.50438598000000001     
   2.0547704000000002       0.50438598000000001     
   2.0621035999999999       0.50438598000000001     
   2.0694254999999999       0.50438598000000001     
   2.0767359999999999       0.50438598000000001     
   2.0840352000000002       0.50438598000000001     
   2.0913232000000002       0.50438598000000001     
   2.0985998000000001       0.50438598000000001     
   2.1058652000000002       0.50438598000000001     
   2.1131193000000001       0.50438598000000001     
   2.1203620999999999       0.50438598000000001     
   2.1275938000000001       0.50438598000000001     
   2.1348142000000001       0.50438598000000001     
   2.1420233999999998       0.50438598000000001     
   2.1492214000000001       0.50438598000000001     
   2.1564082000000000       0.50438598000000001     
   2.1635838000000001       0.50438598000000001     
   2.1707483000000001       0.50438598000000001     
   2.1779016000000002       0.50438598000000001     
   2.1850437999999999       0.50438598000000001     
   2.1921748999999999       0.50438598000000001     
   2.1992948000000001       0.50438598000000001     
   2.2064037000000001       0.50438598000000001     
   2.2135014000000002       0.50438598000000001     
   2.2205881000000001       0.50438598000000001     
   2.2276638000000002       0.50438598000000001     
   2.2347283999999998       0.50438598000000001     
   2.2417818999999999       0.50438598000000001     
   2.2488244000000002       0.50438598000000001     
   2.2558560000000001       0.50438598000000001     
   2.2628765000000000       0.50438598000000001     
   2.2698860000000001       0.50438598000000001     
   2.2768845999999998       0.50438598000000001     
   2.2838721999999998       0.50438598000000001     
   2.2908488000000000       0.50438598000000001     
   2.2978144999999999       0.50438598000000001     
   2.3047692999999998       0.50438598000000001     
   2.3117131999999998       0.50438598000000001     
   2.3186461000000000       0.50438598000000001     
   2.3255682000000002       0.50438598000000001     
   2.3324794000000000       0.50438598000000001     
   2.3393798000000001       0.50438598000000001     
   2.3462692999999999       0.50438598000000001     
   2.3531479000000002       0.50438598000000001     
   2.3600156999999999       0.50438598000000001     
   2.3668727999999999       0.50438598000000001     
   2.3737189999999999       0.50438598000000001     
   2.3805543999999998       0.50438598000000001     
   2.3873790000000001       0.50438598000000001     
   2.3941929000000002       0.50438598000000001     
   2.4009960000000001       0.50438598000000001     
   2.4077883999999998       0.50438598000000001     
   2.4145699999999999       0.50438598000000001     
   2.4213410000000000       0.50438598000000001     
   2.4281012000000000       0.50438598000000001     
   2.4348507000000001       0.50438598000000001     
   2.4415895999999999       0.50438598000000001     
   2.4483177999999999       0.50438598000000001     
   2.4550353000000000       0.50438598000000001     
   2.4617422000000002       0.50438598000000001     
   2.4684384000000001       0.50438598000000001     
   2.4751240000000001       0.50438598000000001     
   2.4817990000000001       0.50438598000000001     
   2.4884634999999999       0.50438598000000001     
   2.4951173000000000       0.50438598000000001     
   2.5017605000000001       0.50438598000000001     
   2.5083932000000000       0.50438598000000001     
   2.5150153999999998       0.50438598000000001     
   2.5216270000000001       0.50438598000000001     
   2.5282281000000002       0.50438598000000001     
   2.5348185999999999       0.50438598000000001     
   2.5413986999999998       0.50438598000000001     
   2.5479683000000000       0.50438598000000001     
   2.5545274000000000       0.50438598000000001     
   2.5610759999999999       0.50438598000000001     
   2.5676142000000000       0.50438598000000001     
   2.5741418999999999       0.50438598000000001     
   2.5806591999999999       0.50438598000000001     
   2.5871661000000001       0.50438598000000001     
   2.5936626000000000       0.50438598000000001     
   2.6001487000000001       0.50438598000000001     
   2.6066243999999998       0.50438598000000001     
   2.6130897000000002       0.50438598000000001     
   2.6195447000000001       0.50438598000000001     
   2.6259893000000001       0.50438598000000001     
   2.6324234999999998       0.50438598000000001     
   2.6388474999999998       0.50438598000000001     
   2.6452610999999999       0.50438598000000001     
   2.6516644999999999       0.50438598000000001     
   2.6580575000000000       0.50438598000000001     
   2.6644402999999999       0.50438598000000001     
   2.6708128000000002       0.50438598000000001     
   2.6771750000000001       0.50438598000000001     
   2.6835271000000001       0.50438598000000001     
   2.6898688000000002       0.50438598000000001     
   2.6962003999999999       0.50438598000000001     
   2.7025217000000001       0.50438598000000001     
   2.7088329000000000       0.50438598000000001     
   2.7151337999999998       0.50438598000000001     
   2.7214246000000002       0.50438598000000001     
   2.7277051999999999       0.50438598000000001     
   2.7339756999999998       0.50438598000000001     
   2.7402359999999999       0.50438598000000001     
   2.7464862000000001       0.50438598000000001     
   2.7527263000000000       0.50438598000000001     
   2.7589562999999999       0.50438598000000001     
   2.7651762000000000       0.50438598000000001     
   2.7713860000000001       0.50438598000000001     
   2.7775856999999999       0.50438598000000001     
   2.7837754000000001       0.50438598000000001     
   2.7899550999999998       0.50438598000000001     
   2.7961247000000000       0.50438598000000001     
   2.8022841999999999       0.50438598000000001     
   2.8084338000000000       0.50438598000000001     
   2.8145733000000002       0.50438598000000001     
   2.8207029000000001       0.50438598000000001     
   2.8268225000000000       0.50438598000000001     
   2.8329320999999998       0.50438598000000001     
   2.8390317000000000       0.50438598000000001     
   2.8451214999999999       0.50438598000000001     
   2.8512012000000002       0.50438598000000001     
   2.8572711000000002       0.50438598000000001     
   2.8633310000000001       0.50438598000000001     
   2.8693811000000000       0.50438598000000001     
   2.8754211999999999       0.50438598000000001     
   2.8814514999999998       0.50438598000000001     
   2.8874719000000000       0.50438598000000001     
   2.8934825000000002       0.50438598000000001     
   2.8994832000000001       0.50438598000000001     
   2.9054741000000002       0.50438598000000001     
   2.9114551000000000       0.50438598000000001     
   2.9174264000000001       0.50438598000000001     
   2.9233878000000000       0.50438598000000001     
   2.9293395000000002       0.50438598000000001     
   2.9352814000000000       0.50438598000000001     
   2.9412134999999999       0.50438598000000001     
   2.9471359000000001       0.50438598000000001     
   2.9530485000000000       0.50438598000000001     
   2.9589514000000001       0.50438598000000001     
   2.9648444999999999       0.50438598000000001     
   2.9707279999999998       0.50438598000000001     
   2.9766016999999998       0.50438598000000001     
   2.9824657999999999       0.50438598000000001     
   2.9883202000000000       0.50438598000000001     
   2.9941648999999999       0.50438598000000001     
   3.0000000000000000       0.50438598000000001     
   2.0400699000000002       0.50877194000000003     
   2.0474258000000001       0.50877194000000003     
   2.0547704000000002       0.50877194000000003     
   2.0621035999999999       0.50877194000000003     
   2.0694254999999999       0.50877194000000003     
   2.0767359999999999       0.50877194000000003     
   2.0840352000000002       0.50877194000000003     
   2.0913232000000002       0.50877194000000003     
   2.0985998000000001       0.50877194000000003     
   2.1058652000000002       0.50877194000000003     
   2.1131193000000001       0.50877194000000003     
   2.1203620999999999       0.50877194000000003     
   2.1275938000000001       0.50877194000000003     
   2.1348142000000001       0.50877194000000003     
   2.1420233999999998       0.50877194000000003     
   2.1492214000000001       0.50877194000000003     
   2.1564082000000000       0.50877194000000003     
   2.1635838000000001       0.50877194000000003     
   2.1707483000000001       0.50877194000000003     
   2.1779016000000002       0.50877194000000003     
   2.1850437999999999       0.50877194000000003     
   2.1921748999999999       0.50877194000000003     
   2.1992948000000001       0.50877194000000003     
   2.2064037000000001       0.50877194000000003     
   2.2135014000000002       0.50877194000000003     
   2.2205881000000001       0.50877194000000003     
   2.2276638000000002       0.50877194000000003     
   2.2347283999999998       0.50877194000000003     
   2.2417818999999999       0.50877194000000003     
   2.2488244000000002       0.50877194000000003     
   2.2558560000000001       0.50877194000000003     
   2.2628765000000000       0.50877194000000003     
   2.2698860000000001       0.50877194000000003     
   2.2768845999999998       0.50877194000000003     
   2.2838721999999998       0.50877194000000003     
   2.2908488000000000       0.50877194000000003     
   2.2978144999999999       0.50877194000000003     
   2.3047692999999998       0.50877194000000003     
   2.3117131999999998       0.50877194000000003     
   2.3186461000000000       0.50877194000000003     
   2.3255682000000002       0.50877194000000003     
   2.3324794000000000       0.50877194000000003     
   2.3393798000000001       0.50877194000000003     
   2.3462692999999999       0.50877194000000003     
   2.3531479000000002       0.50877194000000003     
   2.3600156999999999       0.50877194000000003     
   2.3668727999999999       0.50877194000000003     
   2.3737189999999999       0.50877194000000003     
   2.3805543999999998       0.50877194000000003     
   2.3873790000000001       0.50877194000000003     
   2.3941929000000002       0.50877194000000003     
   2.4009960000000001       0.50877194000000003     
   2.4077883999999998       0.50877194000000003     
   2.4145699999999999       0.50877194000000003     
   2.4213410000000000       0.50877194000000003     
   2.4281012000000000       0.50877194000000003     
   2.4348507000000001       0.50877194000000003     
   2.4415895999999999       0.50877194000000003     
   2.4483177999999999       0.50877194000000003     
   2.4550353000000000       0.50877194000000003     
   2.4617422000000002       0.50877194000000003     
   2.4684384000000001       0.50877194000000003     
   2.4751240000000001       0.50877194000000003     
   2.4817990000000001       0.50877194000000003     
   2.4884634999999999       0.50877194000000003     
   2.4951173000000000       0.50877194000000003     
   2.5017605000000001       0.50877194000000003     
   2.5083932000000000       0.50877194000000003     
   2.5150153999999998       0.50877194000000003     
   2.5216270000000001       0.50877194000000003     
   2.5282281000000002       0.50877194000000003     
   2.5348185999999999       0.50877194000000003     
   2.5413986999999998       0.50877194000000003     
   2.5479683000000000       0.50877194000000003     
   2.5545274000000000       0.50877194000000003     
   2.5610759999999999       0.50877194000000003     
   2.5676142000000000       0.50877194000000003     
   2.5741418999999999       0.50877194000000003     
   2.5806591999999999       0.50877194000000003     
   2.5871661000000001       0.50877194000000003     
   2.5936626000000000       0.50877194000000003     
   2.6001487000000001       0.50877194000000003     
   2.6066243999999998       0.50877194000000003     
   2.6130897000000002       0.50877194000000003     
   2.6195447000000001       0.50877194000000003     
   2.6259893000000001       0.50877194000000003     
   2.6324234999999998       0.50877194000000003     
   2.6388474999999998       0.50877194000000003     
   2.6452610999999999       0.50877194000000003     
   2.6516644999999999       0.50877194000000003     
   2.6580575000000000       0.50877194000000003     
   2.6644402999999999       0.50877194000000003     
   2.6708128000000002       0.50877194000000003     
   2.6771750000000001       0.50877194000000003     
   2.6835271000000001       0.50877194000000003     
   2.6898688000000002       0.50877194000000003     
   2.6962003999999999       0.50877194000000003     
   2.7025217000000001       0.50877194000000003     
   2.7088329000000000       0.50877194000000003     
   2.7151337999999998       0.50877194000000003     
   2.7214246000000002       0.50877194000000003     
   2.7277051999999999       0.50877194000000003     
   2.7339756999999998       0.50877194000000003     
   2.7402359999999999       0.50877194000000003     
   2.7464862000000001       0.50877194000000003     
   2.7527263000000000       0.50877194000000003     
   2.7589562999999999       0.50877194000000003     
   2.7651762000000000       0.50877194000000003     
   2.7713860000000001       0.50877194000000003     
   2.7775856999999999       0.50877194000000003     
   2.7837754000000001       0.50877194000000003     
   2.7899550999999998       0.50877194000000003     
   2.7961247000000000       0.50877194000000003     
   2.8022841999999999       0.50877194000000003     
   2.8084338000000000       0.50877194000000003     
   2.8145733000000002       0.50877194000000003     
   2.8207029000000001       0.50877194000000003     
   2.8268225000000000       0.50877194000000003     
   2.8329320999999998       0.50877194000000003     
   2.8390317000000000       0.50877194000000003     
   2.8451214999999999       0.50877194000000003     
   2.8512012000000002       0.50877194000000003     
   2.8572711000000002       0.50877194000000003     
   2.8633310000000001       0.50877194000000003     
   2.8693811000000000       0.50877194000000003     
   2.8754211999999999       0.50877194000000003     
   2.8814514999999998       0.50877194000000003     
   2.8874719000000000       0.50877194000000003     
   2.8934825000000002       0.50877194000000003     
   2.8994832000000001       0.50877194000000003     
   2.9054741000000002       0.50877194000000003     
   2.9114551000000000       0.50877194000000003     
   2.9174264000000001       0.50877194000000003     
   2.9233878000000000       0.50877194000000003     
   2.9293395000000002       0.50877194000000003     
   2.9352814000000000       0.50877194000000003     
   2.9412134999999999       0.50877194000000003     
   2.9471359000000001       0.50877194000000003     
   2.9530485000000000       0.50877194000000003     
   2.9589514000000001       0.50877194000000003     
   2.9648444999999999       0.50877194000000003     
   2.9707279999999998       0.50877194000000003     
   2.9766016999999998       0.50877194000000003     
   2.9824657999999999       0.50877194000000003     
   2.9883202000000000       0.50877194000000003     
   2.9941648999999999       0.50877194000000003     
   3.0000000000000000       0.50877194000000003     
   2.0400699000000002       0.51315790999999999     
   2.0474258000000001       0.51315790999999999     
   2.0547704000000002       0.51315790999999999     
   2.0621035999999999       0.51315790999999999     
   2.0694254999999999       0.51315790999999999     
   2.0767359999999999       0.51315790999999999     
   2.0840352000000002       0.51315790999999999     
   2.0913232000000002       0.51315790999999999     
   2.0985998000000001       0.51315790999999999     
   2.1058652000000002       0.51315790999999999     
   2.1131193000000001       0.51315790999999999     
   2.1203620999999999       0.51315790999999999     
   2.1275938000000001       0.51315790999999999     
   2.1348142000000001       0.51315790999999999     
   2.1420233999999998       0.51315790999999999     
   2.1492214000000001       0.51315790999999999     
   2.1564082000000000       0.51315790999999999     
   2.1635838000000001       0.51315790999999999     
   2.1707483000000001       0.51315790999999999     
   2.1779016000000002       0.51315790999999999     
   2.1850437999999999       0.51315790999999999     
   2.1921748999999999       0.51315790999999999     
   2.1992948000000001       0.51315790999999999     
   2.2064037000000001       0.51315790999999999     
   2.2135014000000002       0.51315790999999999     
   2.2205881000000001       0.51315790999999999     
   2.2276638000000002       0.51315790999999999     
   2.2347283999999998       0.51315790999999999     
   2.2417818999999999       0.51315790999999999     
   2.2488244000000002       0.51315790999999999     
   2.2558560000000001       0.51315790999999999     
   2.2628765000000000       0.51315790999999999     
   2.2698860000000001       0.51315790999999999     
   2.2768845999999998       0.51315790999999999     
   2.2838721999999998       0.51315790999999999     
   2.2908488000000000       0.51315790999999999     
   2.2978144999999999       0.51315790999999999     
   2.3047692999999998       0.51315790999999999     
   2.3117131999999998       0.51315790999999999     
   2.3186461000000000       0.51315790999999999     
   2.3255682000000002       0.51315790999999999     
   2.3324794000000000       0.51315790999999999     
   2.3393798000000001       0.51315790999999999     
   2.3462692999999999       0.51315790999999999     
   2.3531479000000002       0.51315790999999999     
   2.3600156999999999       0.51315790999999999     
   2.3668727999999999       0.51315790999999999     
   2.3737189999999999       0.51315790999999999     
   2.3805543999999998       0.51315790999999999     
   2.3873790000000001       0.51315790999999999     
   2.3941929000000002       0.51315790999999999     
   2.4009960000000001       0.51315790999999999     
   2.4077883999999998       0.51315790999999999     
   2.4145699999999999       0.51315790999999999     
   2.4213410000000000       0.51315790999999999     
   2.4281012000000000       0.51315790999999999     
   2.4348507000000001       0.51315790999999999     
   2.4415895999999999       0.51315790999999999     
   2.4483177999999999       0.51315790999999999     
   2.4550353000000000       0.51315790999999999     
   2.4617422000000002       0.51315790999999999     
   2.4684384000000001       0.51315790999999999     
   2.4751240000000001       0.51315790999999999     
   2.4817990000000001       0.51315790999999999     
   2.4884634999999999       0.51315790999999999     
   2.4951173000000000       0.51315790999999999     
   2.5017605000000001       0.51315790999999999     
   2.5083932000000000       0.51315790999999999     
   2.5150153999999998       0.51315790999999999     
   2.5216270000000001       0.51315790999999999     
   2.5282281000000002       0.51315790999999999     
   2.5348185999999999       0.51315790999999999     
   2.5413986999999998       0.51315790999999999     
   2.5479683000000000       0.51315790999999999     
   2.5545274000000000       0.51315790999999999     
   2.5610759999999999       0.51315790999999999     
   2.5676142000000000       0.51315790999999999     
   2.5741418999999999       0.51315790999999999     
   2.5806591999999999       0.51315790999999999     
   2.5871661000000001       0.51315790999999999     
   2.5936626000000000       0.51315790999999999     
   2.6001487000000001       0.51315790999999999     
   2.6066243999999998       0.51315790999999999     
   2.6130897000000002       0.51315790999999999     
   2.6195447000000001       0.51315790999999999     
   2.6259893000000001       0.51315790999999999     
   2.6324234999999998       0.51315790999999999     
   2.6388474999999998       0.51315790999999999     
   2.6452610999999999       0.51315790999999999     
   2.6516644999999999       0.51315790999999999     
   2.6580575000000000       0.51315790999999999     
   2.6644402999999999       0.51315790999999999     
   2.6708128000000002       0.51315790999999999     
   2.6771750000000001       0.51315790999999999     
   2.6835271000000001       0.51315790999999999     
   2.6898688000000002       0.51315790999999999     
   2.6962003999999999       0.51315790999999999     
   2.7025217000000001       0.51315790999999999     
   2.7088329000000000       0.51315790999999999     
   2.7151337999999998       0.51315790999999999     
   2.7214246000000002       0.51315790999999999     
   2.7277051999999999       0.51315790999999999     
   2.7339756999999998       0.51315790999999999     
   2.7402359999999999       0.51315790999999999     
   2.7464862000000001       0.51315790999999999     
   2.7527263000000000       0.51315790999999999     
   2.7589562999999999       0.51315790999999999     
   2.7651762000000000       0.51315790999999999     
   2.7713860000000001       0.51315790999999999     
   2.7775856999999999       0.51315790999999999     
   2.7837754000000001       0.51315790999999999     
   2.7899550999999998       0.51315790999999999     
   2.7961247000000000       0.51315790999999999     
   2.8022841999999999       0.51315790999999999     
   2.8084338000000000       0.51315790999999999     
   2.8145733000000002       0.51315790999999999     
   2.8207029000000001       0.51315790999999999     
   2.8268225000000000       0.51315790999999999     
   2.8329320999999998       0.51315790999999999     
   2.8390317000000000       0.51315790999999999     
   2.8451214999999999       0.51315790999999999     
   2.8512012000000002       0.51315790999999999     
   2.8572711000000002       0.51315790999999999     