 TITLE = "GRIDBLO_BC0030"
 VARIABLES = "X","Y"
ZONE I=   127,J=   141  ,DATAPACKING=POINT
  -7.2377000000000000E-008   2.0840353000000000     
   4.3858921000000002E-003   2.0840353000000000     
   8.7718566000000008E-003   2.0840353000000000     
   1.3157821000000000E-002   2.0840353000000000     
   1.7543785999999999E-002   2.0840353000000000     
   2.1929750000000001E-002   2.0840353000000000     
   2.6315715000000000E-002   2.0840353000000000     
   3.0701678999999999E-002   2.0840353000000000     
   3.5087644000000001E-002   2.0840353000000000     
   3.9473608000000000E-002   2.0840353000000000     
   4.3859572999999999E-002   2.0840353000000000     
   4.8245536999999998E-002   2.0840353000000000     
   5.2631501999999997E-002   2.0840353000000000     
   5.7017466000000003E-002   2.0840353000000000     
   6.1403431000000001E-002   2.0840353000000000     
   6.5789395000000001E-002   2.0840353000000000     
   7.0175360000000006E-002   2.0840353000000000     
   7.4561323999999998E-002   2.0840353000000000     
   7.8947289000000004E-002   2.0840353000000000     
   8.3333252999999996E-002   2.0840353000000000     
   8.7719218000000002E-002   2.0840353000000000     
   9.2105181999999994E-002   2.0840353000000000     
   9.6491146999999999E-002   2.0840353000000000     
  0.10087711000000001        2.0840353000000000     
  0.10526307999999999        2.0840353000000000     
  0.10964904000000000        2.0840353000000000     
  0.11403500000000000        2.0840353000000000     
  0.11842097000000000        2.0840353000000000     
  0.12280692999999999        2.0840353000000000     
  0.12719290000000000        2.0840353000000000     
  0.13157885999999999        2.0840353000000000     
  0.13596483000000001        2.0840353000000000     
  0.14035079000000000        2.0840353000000000     
  0.14473675999999999        2.0840353000000000     
  0.14912271999999999        2.0840353000000000     
  0.15350869000000000        2.0840353000000000     
  0.15789465000000000        2.0840353000000000     
  0.16228060999999999        2.0840353000000000     
  0.16666658000000001        2.0840353000000000     
  0.17105254000000000        2.0840353000000000     
  0.17543850999999999        2.0840353000000000     
  0.17982446999999999        2.0840353000000000     
  0.18421044000000000        2.0840353000000000     
  0.18859640000000000        2.0840353000000000     
  0.19298236999999999        2.0840353000000000     
  0.19736833000000001        2.0840353000000000     
  0.20175429000000000        2.0840353000000000     
  0.20614025999999999        2.0840353000000000     
  0.21052621999999999        2.0840353000000000     
  0.21491219000000000        2.0840353000000000     
  0.21929815000000000        2.0840353000000000     
  0.22368411999999999        2.0840353000000000     
  0.22807008000000001        2.0840353000000000     
  0.23245605000000000        2.0840353000000000     
  0.23684200999999999        2.0840353000000000     
  0.24122798000000001        2.0840353000000000     
  0.24561394000000000        2.0840353000000000     
  0.24999990000000000        2.0840353000000000     
  0.25438587000000001        2.0840353000000000     
  0.25877182999999998        2.0840353000000000     
  0.26315780000000000        2.0840353000000000     
  0.26754376000000002        2.0840353000000000     
  0.27192972999999998        2.0840353000000000     
  0.27631569000000000        2.0840353000000000     
  0.28070166000000002        2.0840353000000000     
  0.28508761999999999        2.0840353000000000     
  0.28947358000000001        2.0840353000000000     
  0.29385955000000002        2.0840353000000000     
  0.29824550999999999        2.0840353000000000     
  0.30263148000000001        2.0840353000000000     
  0.30701743999999997        2.0840353000000000     
  0.31140340999999999        2.0840353000000000     
  0.31578937000000001        2.0840353000000000     
  0.32017533999999997        2.0840353000000000     
  0.32456130000000000        2.0840353000000000     
  0.32894727000000001        2.0840353000000000     
  0.33333322999999998        2.0840353000000000     
  0.33771919000000000        2.0840353000000000     
  0.34210516000000002        2.0840353000000000     
  0.34649111999999999        2.0840353000000000     
  0.35087709000000000        2.0840353000000000     
  0.35526305000000002        2.0840353000000000     
  0.35964901999999999        2.0840353000000000     
  0.36403498000000001        2.0840353000000000     
  0.36842095000000002        2.0840353000000000     
  0.37280690999999999        2.0840353000000000     
  0.37719287000000001        2.0840353000000000     
  0.38157883999999997        2.0840353000000000     
  0.38596480000000000        2.0840353000000000     
  0.39035077000000001        2.0840353000000000     
  0.39473672999999998        2.0840353000000000     
  0.39912270000000000        2.0840353000000000     
  0.40350866000000002        2.0840353000000000     
  0.40789462999999998        2.0840353000000000     
  0.41228059000000000        2.0840353000000000     
  0.41666656000000002        2.0840353000000000     
  0.42105251999999999        2.0840353000000000     
  0.42543848000000001        2.0840353000000000     
  0.42982445000000002        2.0840353000000000     
  0.43421040999999999        2.0840353000000000     
  0.43859638000000001        2.0840353000000000     
  0.44298233999999997        2.0840353000000000     
  0.44736830999999999        2.0840353000000000     
  0.45175427000000001        2.0840353000000000     
  0.45614023999999997        2.0840353000000000     
  0.46052620000000000        2.0840353000000000     
  0.46491216000000002        2.0840353000000000     
  0.46929812999999998        2.0840353000000000     
  0.47368409000000000        2.0840353000000000     
  0.47807006000000002        2.0840353000000000     
  0.48245601999999999        2.0840353000000000     
  0.48684199000000000        2.0840353000000000     
  0.49122795000000002        2.0840353000000000     
  0.49561391999999999        2.0840353000000000     
  0.49999988000000001        2.0840353000000000     
  0.50438585000000002        2.0840353000000000     
  0.50877181000000005        2.0840353000000000     
  0.51315778000000001        2.0840353000000000     
  0.51754374000000003        2.0840353000000000     
  0.52192970999999999        2.0840353000000000     
  0.52631567000000001        2.0840353000000000     
  0.53070163999999997        2.0840353000000000     
  0.53508760000000000        2.0840353000000000     
  0.53947356999999996        2.0840353000000000     
  0.54385952999999998        2.0840353000000000     
  0.54824550000000005        2.0840353000000000     
  0.55263145999999996        2.0840353000000000     
  -7.2377000000000000E-008   2.0913232000000002     
   4.3858921000000002E-003   2.0913232000000002     
   8.7718566000000008E-003   2.0913232000000002     
   1.3157821000000000E-002   2.0913232000000002     
   1.7543785999999999E-002   2.0913232000000002     
   2.1929750000000001E-002   2.0913232000000002     
   2.6315715000000000E-002   2.0913232000000002     
   3.0701678999999999E-002   2.0913232000000002     
   3.5087644000000001E-002   2.0913232000000002     
   3.9473608000000000E-002   2.0913232000000002     
   4.3859572999999999E-002   2.0913232000000002     
   4.8245536999999998E-002   2.0913232000000002     
   5.2631501999999997E-002   2.0913232000000002     
   5.7017466000000003E-002   2.0913232000000002     
   6.1403431000000001E-002   2.0913232000000002     
   6.5789395000000001E-002   2.0913232000000002     
   7.0175360000000006E-002   2.0913232000000002     
   7.4561323999999998E-002   2.0913232000000002     
   7.8947289000000004E-002   2.0913232000000002     
   8.3333252999999996E-002   2.0913232000000002     
   8.7719218000000002E-002   2.0913232000000002     
   9.2105181999999994E-002   2.0913232000000002     
   9.6491146999999999E-002   2.0913232000000002     
  0.10087711000000001        2.0913232000000002     
  0.10526307999999999        2.0913232000000002     
  0.10964904000000000        2.0913232000000002     
  0.11403500000000000        2.0913232000000002     
  0.11842097000000000        2.0913232000000002     
  0.12280692999999999        2.0913232000000002     
  0.12719290000000000        2.0913232000000002     
  0.13157885999999999        2.0913232000000002     
  0.13596483000000001        2.0913232000000002     
  0.14035079000000000        2.0913232000000002     
  0.14473675999999999        2.0913232000000002     
  0.14912271999999999        2.0913232000000002     
  0.15350869000000000        2.0913232000000002     
  0.15789465000000000        2.0913232000000002     
  0.16228060999999999        2.0913232000000002     
  0.16666658000000001        2.0913232000000002     
  0.17105254000000000        2.0913232000000002     
  0.17543850999999999        2.0913232000000002     
  0.17982446999999999        2.0913232000000002     
  0.18421044000000000        2.0913232000000002     
  0.18859640000000000        2.0913232000000002     
  0.19298236999999999        2.0913232000000002     
  0.19736833000000001        2.0913232000000002     
  0.20175429000000000        2.0913232000000002     
  0.20614025999999999        2.0913232000000002     
  0.21052621999999999        2.0913232000000002     
  0.21491219000000000        2.0913232000000002     
  0.21929815000000000        2.0913232000000002     
  0.22368411999999999        2.0913232000000002     
  0.22807008000000001        2.0913232000000002     
  0.23245605000000000        2.0913232000000002     
  0.23684200999999999        2.0913232000000002     
  0.24122798000000001        2.0913232000000002     
  0.24561394000000000        2.0913232000000002     
  0.24999990000000000        2.0913232000000002     
  0.25438587000000001        2.0913232000000002     
  0.25877182999999998        2.0913232000000002     
  0.26315780000000000        2.0913232000000002     
  0.26754376000000002        2.0913232000000002     
  0.27192972999999998        2.0913232000000002     
  0.27631569000000000        2.0913232000000002     
  0.28070166000000002        2.0913232000000002     
  0.28508761999999999        2.0913232000000002     
  0.28947358000000001        2.0913232000000002     
  0.29385955000000002        2.0913232000000002     
  0.29824550999999999        2.0913232000000002     
  0.30263148000000001        2.0913232000000002     
  0.30701743999999997        2.0913232000000002     
  0.31140340999999999        2.0913232000000002     
  0.31578937000000001        2.0913232000000002     
  0.32017533999999997        2.0913232000000002     
  0.32456130000000000        2.0913232000000002     
  0.32894727000000001        2.0913232000000002     
  0.33333322999999998        2.0913232000000002     
  0.33771919000000000        2.0913232000000002     
  0.34210516000000002        2.0913232000000002     
  0.34649111999999999        2.0913232000000002     
  0.35087709000000000        2.0913232000000002     
  0.35526305000000002        2.0913232000000002     
  0.35964901999999999        2.0913232000000002     
  0.36403498000000001        2.0913232000000002     
  0.36842095000000002        2.0913232000000002     
  0.37280690999999999        2.0913232000000002     
  0.37719287000000001        2.0913232000000002     
  0.38157883999999997        2.0913232000000002     
  0.38596480000000000        2.0913232000000002     
  0.39035077000000001        2.0913232000000002     
  0.39473672999999998        2.0913232000000002     
  0.39912270000000000        2.0913232000000002     
  0.40350866000000002        2.0913232000000002     
  0.40789462999999998        2.0913232000000002     
  0.41228059000000000        2.0913232000000002     
  0.41666656000000002        2.0913232000000002     
  0.42105251999999999        2.0913232000000002     
  0.42543848000000001        2.0913232000000002     
  0.42982445000000002        2.0913232000000002     
  0.43421040999999999        2.0913232000000002     
  0.43859638000000001        2.0913232000000002     
  0.44298233999999997        2.0913232000000002     
  0.44736830999999999        2.0913232000000002     
  0.45175427000000001        2.0913232000000002     
  0.45614023999999997        2.0913232000000002     
  0.46052620000000000        2.0913232000000002     
  0.46491216000000002        2.0913232000000002     
  0.46929812999999998        2.0913232000000002     
  0.47368409000000000        2.0913232000000002     
  0.47807006000000002        2.0913232000000002     
  0.48245601999999999        2.0913232000000002     
  0.48684199000000000        2.0913232000000002     
  0.49122795000000002        2.0913232000000002     
  0.49561391999999999        2.0913232000000002     
  0.49999988000000001        2.0913232000000002     
  0.50438585000000002        2.0913232000000002     
  0.50877181000000005        2.0913232000000002     
  0.51315778000000001        2.0913232000000002     
  0.51754374000000003        2.0913232000000002     
  0.52192970999999999        2.0913232000000002     
  0.52631567000000001        2.0913232000000002     
  0.53070163999999997        2.0913232000000002     
  0.53508760000000000        2.0913232000000002     
  0.53947356999999996        2.0913232000000002     
  0.54385952999999998        2.0913232000000002     
  0.54824550000000005        2.0913232000000002     
  0.55263145999999996        2.0913232000000002     
  -7.2377000000000000E-008   2.0985999000000000     
   4.3858921000000002E-003   2.0985999000000000     
   8.7718566000000008E-003   2.0985999000000000     
   1.3157821000000000E-002   2.0985999000000000     
   1.7543785999999999E-002   2.0985999000000000     
   2.1929750000000001E-002   2.0985999000000000     
   2.6315715000000000E-002   2.0985999000000000     
   3.0701678999999999E-002   2.0985999000000000     
   3.5087644000000001E-002   2.0985999000000000     
   3.9473608000000000E-002   2.0985999000000000     
   4.3859572999999999E-002   2.0985999000000000     
   4.8245536999999998E-002   2.0985999000000000     
   5.2631501999999997E-002   2.0985999000000000     
   5.7017466000000003E-002   2.0985999000000000     
   6.1403431000000001E-002   2.0985999000000000     
   6.5789395000000001E-002   2.0985999000000000     
   7.0175360000000006E-002   2.0985999000000000     
   7.4561323999999998E-002   2.0985999000000000     
   7.8947289000000004E-002   2.0985999000000000     
   8.3333252999999996E-002   2.0985999000000000     
   8.7719218000000002E-002   2.0985999000000000     
   9.2105181999999994E-002   2.0985999000000000     
   9.6491146999999999E-002   2.0985999000000000     
  0.10087711000000001        2.0985999000000000     
  0.10526307999999999        2.0985999000000000     
  0.10964904000000000        2.0985999000000000     
  0.11403500000000000        2.0985999000000000     
  0.11842097000000000        2.0985999000000000     
  0.12280692999999999        2.0985999000000000     
  0.12719290000000000        2.0985999000000000     
  0.13157885999999999        2.0985999000000000     
  0.13596483000000001        2.0985999000000000     
  0.14035079000000000        2.0985999000000000     
  0.14473675999999999        2.0985999000000000     
  0.14912271999999999        2.0985999000000000     
  0.15350869000000000        2.0985999000000000     
  0.15789465000000000        2.0985999000000000     
  0.16228060999999999        2.0985999000000000     
  0.16666658000000001        2.0985999000000000     
  0.17105254000000000        2.0985999000000000     
  0.17543850999999999        2.0985999000000000     
  0.17982446999999999        2.0985999000000000     
  0.18421044000000000        2.0985999000000000     
  0.18859640000000000        2.0985999000000000     
  0.19298236999999999        2.0985999000000000     
  0.19736833000000001        2.0985999000000000     
  0.20175429000000000        2.0985999000000000     
  0.20614025999999999        2.0985999000000000     
  0.21052621999999999        2.0985999000000000     
  0.21491219000000000        2.0985999000000000     
  0.21929815000000000        2.0985999000000000     
  0.22368411999999999        2.0985999000000000     
  0.22807008000000001        2.0985999000000000     
  0.23245605000000000        2.0985999000000000     
  0.23684200999999999        2.0985999000000000     
  0.24122798000000001        2.0985999000000000     
  0.24561394000000000        2.0985999000000000     
  0.24999990000000000        2.0985999000000000     
  0.25438587000000001        2.0985999000000000     
  0.25877182999999998        2.0985999000000000     
  0.26315780000000000        2.0985999000000000     
  0.26754376000000002        2.0985999000000000     
  0.27192972999999998        2.0985999000000000     
  0.27631569000000000        2.0985999000000000     
  0.28070166000000002        2.0985999000000000     
  0.28508761999999999        2.0985999000000000     
  0.28947358000000001        2.0985999000000000     
  0.29385955000000002        2.0985999000000000     
  0.29824550999999999        2.0985999000000000     
  0.30263148000000001        2.0985999000000000     
  0.30701743999999997        2.0985999000000000     
  0.31140340999999999        2.0985999000000000     
  0.31578937000000001        2.0985999000000000     
  0.32017533999999997        2.0985999000000000     
  0.32456130000000000        2.0985999000000000     
  0.32894727000000001        2.0985999000000000     
  0.33333322999999998        2.0985999000000000     
  0.33771919000000000        2.0985999000000000     
  0.34210516000000002        2.0985999000000000     
  0.34649111999999999        2.0985999000000000     
  0.35087709000000000        2.0985999000000000     
  0.35526305000000002        2.0985999000000000     
  0.35964901999999999        2.0985999000000000     
  0.36403498000000001        2.0985999000000000     
  0.36842095000000002        2.0985999000000000     
  0.37280690999999999        2.0985999000000000     
  0.37719287000000001        2.0985999000000000     
  0.38157883999999997        2.0985999000000000     
  0.38596480000000000        2.0985999000000000     
  0.39035077000000001        2.0985999000000000     
  0.39473672999999998        2.0985999000000000     
  0.39912270000000000        2.0985999000000000     
  0.40350866000000002        2.0985999000000000     
  0.40789462999999998        2.0985999000000000     
  0.41228059000000000        2.0985999000000000     
  0.41666656000000002        2.0985999000000000     
  0.42105251999999999        2.0985999000000000     
  0.42543848000000001        2.0985999000000000     
  0.42982445000000002        2.0985999000000000     
  0.43421040999999999        2.0985999000000000     
  0.43859638000000001        2.0985999000000000     
  0.44298233999999997        2.0985999000000000     
  0.44736830999999999        2.0985999000000000     
  0.45175427000000001        2.0985999000000000     
  0.45614023999999997        2.0985999000000000     
  0.46052620000000000        2.0985999000000000     
  0.46491216000000002        2.0985999000000000     
  0.46929812999999998        2.0985999000000000     
  0.47368409000000000        2.0985999000000000     
  0.47807006000000002        2.0985999000000000     
  0.48245601999999999        2.0985999000000000     
  0.48684199000000000        2.0985999000000000     
  0.49122795000000002        2.0985999000000000     
  0.49561391999999999        2.0985999000000000     
  0.49999988000000001        2.0985999000000000     
  0.50438585000000002        2.0985999000000000     
  0.50877181000000005        2.0985999000000000     
  0.51315778000000001        2.0985999000000000     
  0.51754374000000003        2.0985999000000000     
  0.52192970999999999        2.0985999000000000     
  0.52631567000000001        2.0985999000000000     
  0.53070163999999997        2.0985999000000000     
  0.53508760000000000        2.0985999000000000     
  0.53947356999999996        2.0985999000000000     
  0.54385952999999998        2.0985999000000000     
  0.54824550000000005        2.0985999000000000     
  0.55263145999999996        2.0985999000000000     
  -7.2377000000000000E-008   2.1058653000000001     
   4.3858921000000002E-003   2.1058653000000001     
   8.7718566000000008E-003   2.1058653000000001     
   1.3157821000000000E-002   2.1058653000000001     
   1.7543785999999999E-002   2.1058653000000001     
   2.1929750000000001E-002   2.1058653000000001     
   2.6315715000000000E-002   2.1058653000000001     
   3.0701678999999999E-002   2.1058653000000001     
   3.5087644000000001E-002   2.1058653000000001     
   3.9473608000000000E-002   2.1058653000000001     
   4.3859572999999999E-002   2.1058653000000001     
   4.8245536999999998E-002   2.1058653000000001     
   5.2631501999999997E-002   2.1058653000000001     
   5.7017466000000003E-002   2.1058653000000001     
   6.1403431000000001E-002   2.1058653000000001     
   6.5789395000000001E-002   2.1058653000000001     
   7.0175360000000006E-002   2.1058653000000001     
   7.4561323999999998E-002   2.1058653000000001     
   7.8947289000000004E-002   2.1058653000000001     
   8.3333252999999996E-002   2.1058653000000001     
   8.7719218000000002E-002   2.1058653000000001     
   9.2105181999999994E-002   2.1058653000000001     
   9.6491146999999999E-002   2.1058653000000001     
  0.10087711000000001        2.1058653000000001     
  0.10526307999999999        2.1058653000000001     
  0.10964904000000000        2.1058653000000001     
  0.11403500000000000        2.1058653000000001     
  0.11842097000000000        2.1058653000000001     
  0.12280692999999999        2.1058653000000001     
  0.12719290000000000        2.1058653000000001     
  0.13157885999999999        2.1058653000000001     
  0.13596483000000001        2.1058653000000001     
  0.14035079000000000        2.1058653000000001     
  0.14473675999999999        2.1058653000000001     
  0.14912271999999999        2.1058653000000001     
  0.15350869000000000        2.1058653000000001     
  0.15789465000000000        2.1058653000000001     
  0.16228060999999999        2.1058653000000001     
  0.16666658000000001        2.1058653000000001     
  0.17105254000000000        2.1058653000000001     
  0.17543850999999999        2.1058653000000001     
  0.17982446999999999        2.1058653000000001     
  0.18421044000000000        2.1058653000000001     
  0.18859640000000000        2.1058653000000001     
  0.19298236999999999        2.1058653000000001     
  0.19736833000000001        2.1058653000000001     
  0.20175429000000000        2.1058653000000001     
  0.20614025999999999        2.1058653000000001     
  0.21052621999999999        2.1058653000000001     
  0.21491219000000000        2.1058653000000001     
  0.21929815000000000        2.1058653000000001     
  0.22368411999999999        2.1058653000000001     
  0.22807008000000001        2.1058653000000001     
  0.23245605000000000        2.1058653000000001     
  0.23684200999999999        2.1058653000000001     
  0.24122798000000001        2.1058653000000001     
  0.24561394000000000        2.1058653000000001     
  0.24999990000000000        2.1058653000000001     
  0.25438587000000001        2.1058653000000001     
  0.25877182999999998        2.1058653000000001     
  0.26315780000000000        2.1058653000000001     
  0.26754376000000002        2.1058653000000001     
  0.27192972999999998        2.1058653000000001     
  0.27631569000000000        2.1058653000000001     
  0.28070166000000002        2.1058653000000001     
  0.28508761999999999        2.1058653000000001     
  0.28947358000000001        2.1058653000000001     
  0.29385955000000002        2.1058653000000001     
  0.29824550999999999        2.1058653000000001     
  0.30263148000000001        2.1058653000000001     
  0.30701743999999997        2.1058653000000001     
  0.31140340999999999        2.1058653000000001     
  0.31578937000000001        2.1058653000000001     
  0.32017533999999997        2.1058653000000001     
  0.32456130000000000        2.1058653000000001     
  0.32894727000000001        2.1058653000000001     
  0.33333322999999998        2.1058653000000001     
  0.33771919000000000        2.1058653000000001     
  0.34210516000000002        2.1058653000000001     
  0.34649111999999999        2.1058653000000001     
  0.35087709000000000        2.1058653000000001     
  0.35526305000000002        2.1058653000000001     
  0.35964901999999999        2.1058653000000001     
  0.36403498000000001        2.1058653000000001     
  0.36842095000000002        2.1058653000000001     
  0.37280690999999999        2.1058653000000001     
  0.37719287000000001        2.1058653000000001     
  0.38157883999999997        2.1058653000000001     
  0.38596480000000000        2.1058653000000001     
  0.39035077000000001        2.1058653000000001     
  0.39473672999999998        2.1058653000000001     
  0.39912270000000000        2.1058653000000001     
  0.40350866000000002        2.1058653000000001     
  0.40789462999999998        2.1058653000000001     
  0.41228059000000000        2.1058653000000001     
  0.41666656000000002        2.1058653000000001     
  0.42105251999999999        2.1058653000000001     
  0.42543848000000001        2.1058653000000001     
  0.42982445000000002        2.1058653000000001     
  0.43421040999999999        2.1058653000000001     
  0.43859638000000001        2.1058653000000001     
  0.44298233999999997        2.1058653000000001     
  0.44736830999999999        2.1058653000000001     
  0.45175427000000001        2.1058653000000001     
  0.45614023999999997        2.1058653000000001     
  0.46052620000000000        2.1058653000000001     
  0.46491216000000002        2.1058653000000001     
  0.46929812999999998        2.1058653000000001     
  0.47368409000000000        2.1058653000000001     
  0.47807006000000002        2.1058653000000001     
  0.48245601999999999        2.1058653000000001     
  0.48684199000000000        2.1058653000000001     
  0.49122795000000002        2.1058653000000001     
  0.49561391999999999        2.1058653000000001     
  0.49999988000000001        2.1058653000000001     
  0.50438585000000002        2.1058653000000001     
  0.50877181000000005        2.1058653000000001     
  0.51315778000000001        2.1058653000000001     
  0.51754374000000003        2.1058653000000001     
  0.52192970999999999        2.1058653000000001     
  0.52631567000000001        2.1058653000000001     
  0.53070163999999997        2.1058653000000001     
  0.53508760000000000        2.1058653000000001     
  0.53947356999999996        2.1058653000000001     
  0.54385952999999998        2.1058653000000001     
  0.54824550000000005        2.1058653000000001     
  0.55263145999999996        2.1058653000000001     
  -7.2377000000000000E-008   2.1131194000000000     
   4.3858921000000002E-003   2.1131194000000000     
   8.7718566000000008E-003   2.1131194000000000     
   1.3157821000000000E-002   2.1131194000000000     
   1.7543785999999999E-002   2.1131194000000000     
   2.1929750000000001E-002   2.1131194000000000     
   2.6315715000000000E-002   2.1131194000000000     
   3.0701678999999999E-002   2.1131194000000000     
   3.5087644000000001E-002   2.1131194000000000     
   3.9473608000000000E-002   2.1131194000000000     
   4.3859572999999999E-002   2.1131194000000000     
   4.8245536999999998E-002   2.1131194000000000     
   5.2631501999999997E-002   2.1131194000000000     
   5.7017466000000003E-002   2.1131194000000000     
   6.1403431000000001E-002   2.1131194000000000     
   6.5789395000000001E-002   2.1131194000000000     
   7.0175360000000006E-002   2.1131194000000000     
   7.4561323999999998E-002   2.1131194000000000     
   7.8947289000000004E-002   2.1131194000000000     
   8.3333252999999996E-002   2.1131194000000000     
   8.7719218000000002E-002   2.1131194000000000     
   9.2105181999999994E-002   2.1131194000000000     
   9.6491146999999999E-002   2.1131194000000000     
  0.10087711000000001        2.1131194000000000     
  0.10526307999999999        2.1131194000000000     
  0.10964904000000000        2.1131194000000000     
  0.11403500000000000        2.1131194000000000     
  0.11842097000000000        2.1131194000000000     
  0.12280692999999999        2.1131194000000000     
  0.12719290000000000        2.1131194000000000     
  0.13157885999999999        2.1131194000000000     
  0.13596483000000001        2.1131194000000000     
  0.14035079000000000        2.1131194000000000     
  0.14473675999999999        2.1131194000000000     
  0.14912271999999999        2.1131194000000000     
  0.15350869000000000        2.1131194000000000     
  0.15789465000000000        2.1131194000000000     
  0.16228060999999999        2.1131194000000000     
  0.16666658000000001        2.1131194000000000     
  0.17105254000000000        2.1131194000000000     
  0.17543850999999999        2.1131194000000000     
  0.17982446999999999        2.1131194000000000     
  0.18421044000000000        2.1131194000000000     
  0.18859640000000000        2.1131194000000000     
  0.19298236999999999        2.1131194000000000     
  0.19736833000000001        2.1131194000000000     
  0.20175429000000000        2.1131194000000000     
  0.20614025999999999        2.1131194000000000     
  0.21052621999999999        2.1131194000000000     
  0.21491219000000000        2.1131194000000000     
  0.21929815000000000        2.1131194000000000     
  0.22368411999999999        2.1131194000000000     
  0.22807008000000001        2.1131194000000000     
  0.23245605000000000        2.1131194000000000     
  0.23684200999999999        2.1131194000000000     
  0.24122798000000001        2.1131194000000000     